MPI startup(): Warning: I_MPI_PMI_LIBRARY will be ignored since the hydra process manager was found
 argument  1 = ethene.nw
                                         
                                         
 
 
             Northwest Computational Chemistry Package (NWChem) 7.0.2
             --------------------------------------------------------
 
 
                    Environmental Molecular Sciences Laboratory
                       Pacific Northwest National Laboratory
                                Richland, WA 99352
 
                              Copyright (c) 1994-2020
                       Pacific Northwest National Laboratory
                            Battelle Memorial Institute
 
             NWChem is an open-source computational chemistry package
                        distributed under the terms of the
                      Educational Community License (ECL) 2.0
             A copy of the license is included with this distribution
                              in the LICENSE.TXT file
 
                                  ACKNOWLEDGMENT
                                  --------------

            This software and its documentation were developed at the
            EMSL at Pacific Northwest National Laboratory, a multiprogram
            national laboratory, operated for the U.S. Department of Energy
            by Battelle under Contract Number DE-AC05-76RL01830. Support
            for this work was provided by the Department of Energy Office
            of Biological and Environmental Research, Office of Basic
            Energy Sciences, and the Office of Advanced Scientific Computing.


           Job information
           ---------------

    hostname        = c5-60
    program         = nwchem
    date            = Mon Oct 23 21:35:59 2023

    compiled        = Thu_Apr_13_12:34:06_2023
    source          = /tmp/eb-6itark0s/tmp_dxlr5wq-NWChem-7.0.2
    nwchem branch   = 7.0.2
    nwchem revision = b9985dfa
    ga revision     = N/A
    use scalapack   = T
    input           = ethene.nw
    prefix          = ethene.
    data base       = ./ethene.db
    status          = startup
    nproc           =        1
    time left       =     -1s



           Memory information
           ------------------

    heap     =   96847644 doubles =    738.9 Mbytes
    stack    =   96847645 doubles =    738.9 Mbytes
    global   =   55341511 doubles =    422.2 Mbytes (distinct from heap & stack)
    total    =  249036800 doubles =   1900.0 Mbytes
    verify   = yes
    hardfail = no 


           Directory information
           ---------------------
 
  0 permanent = .
  0 scratch   = .
 
 
 
 
                                NWChem Input Module
                                -------------------
 
 
  library name resolved from: environment
  library file name is: <
 /cluster/software/NWChem/7.0.2-intel-2021a/data/libraries/>
  
                      Basis "ao basis" -> "" (cartesian)
                      -----
  H (Hydrogen)
  ------------
            Exponent  Coefficients 
       -------------- ---------------------------------------------------------
  1 S  1.92384000E+01  0.032828
  1 S  2.89870000E+00  0.231204
  1 S  6.53500000E-01  0.817226
 
  2 S  1.77600000E-01  1.000000
 
  3 P  3.56000000E-01  1.000000
 
  C (Carbon)
  ----------
            Exponent  Coefficients 
       -------------- ---------------------------------------------------------
  1 S  4.23300000E+03  0.001220
  1 S  6.34900000E+02  0.009342
  1 S  1.46100000E+02  0.045452
  1 S  4.25000000E+01  0.154657
  1 S  1.41900000E+01  0.358866
  1 S  5.14800000E+00  0.438632
  1 S  1.96700000E+00  0.145918
 
  2 S  5.14800000E+00 -0.168367
  2 S  4.96200000E-01  1.060091
 
  3 S  1.53300000E-01  1.000000
 
  4 P  1.81600000E+01  0.018539
  4 P  3.98600000E+00  0.115436
  4 P  1.14300000E+00  0.386188
  4 P  3.59400000E-01  0.640114
 
  5 P  1.14600000E-01  1.000000
 
  6 D  5.87000000E-01  1.000000
 


 Summary of "ao basis" -> "" (cartesian)
 ------------------------------------------------------------------------------
       Tag                 Description            Shells   Functions and Types
 ---------------- ------------------------------  ------  ---------------------
 H                       user specified              3        5   2s1p
 C                       user specified              6       15   3s2p1d



 Scaling coordinates for geometry "geometry" by  1.889725989
 (inverse scale =  0.529177249)

 Turning off AUTOSYM since
 SYMMETRY directive was detected!
 

          ------
          auto-z
          ------
  no constraints, skipping   0.000000000000000E+000
  no constraints, skipping   0.000000000000000E+000
 
 
                             Geometry "geometry" -> ""
                             -------------------------
 
 Output coordinates in angstroms (scale by  1.889725989 to convert to a.u.)
 
  No.       Tag          Charge          X              Y              Z
 ---- ---------------- ---------- -------------- -------------- --------------
    1 C1                   6.0000    -0.64946875     0.05053125    -0.17167500
    2 C2                   6.0000     0.64783125    -0.05796875     0.16892500
    3 H3                   1.0000    -1.19626875     0.98153125    -0.04437500
    4 H4                   1.0000    -1.20176875    -0.79006875    -0.58787500
    5 H5                   1.0000     1.15793125     0.81393125     0.58252500
    6 H6                   1.0000     1.24993125    -0.96076875     0.06622500
 
      Atomic Mass 
      ----------- 
 
      C1                12.000000
      C2                12.000000
      H3                 1.007825
      H4                 1.007825
      H5                 1.007825
      H6                 1.007825
 

 Effective nuclear repulsion energy (a.u.)      33.1144264346

            Nuclear Dipole moment (a.u.) 
            ----------------------------
        X                 Y               Z
 ---------------- ---------------- ----------------
     0.0000000000     0.0000000000     0.0000000000
 


                                Z-matrix (autoz)
                                -------- 

 Units are Angstrom for bonds and degrees for angles
 
      Type          Name      I     J     K     L     M      Value
      ----------- --------  ----- ----- ----- ----- ----- ----------
    1 Stretch                  1     2                       1.34565
    2 Stretch                  1     3                       1.08718
    3 Stretch                  1     4                       1.08852
    4 Stretch                  2     5                       1.09155
    5 Stretch                  2     6                       1.09001
    6 Bend                     1     2     5               118.81804
    7 Bend                     1     2     6               125.13243
    8 Bend                     2     1     3               121.62064
    9 Bend                     2     1     4               121.57881
   10 Bend                     3     1     4               116.80054
   11 Bend                     5     2     6               116.04953
   12 Torsion                  3     1     2     5          -0.00812
   13 Torsion                  3     1     2     6         179.99775
   14 Torsion                  4     1     2     5         179.99926
   15 Torsion                  4     1     2     6           0.00513
 
 
            XYZ format geometry
            -------------------
     6
 geometry
 C1                   -0.64946875     0.05053125    -0.17167500
 C2                    0.64783125    -0.05796875     0.16892500
 H3                   -1.19626875     0.98153125    -0.04437500
 H4                   -1.20176875    -0.79006875    -0.58787500
 H5                    1.15793125     0.81393125     0.58252500
 H6                    1.24993125    -0.96076875     0.06622500
 
 ==============================================================================
                                internuclear distances
 ------------------------------------------------------------------------------
       center one      |      center two      | atomic units |  angstroms
 ------------------------------------------------------------------------------
    2 C2               |   1 C1               |     2.54291  |     1.34565
    3 H3               |   1 C1               |     2.05447  |     1.08718
    4 H4               |   1 C1               |     2.05700  |     1.08852
    5 H5               |   2 C2               |     2.06273  |     1.09155
    6 H6               |   2 C2               |     2.05982  |     1.09001
 ------------------------------------------------------------------------------
                         number of included internuclear distances:          5
 ==============================================================================



 ==============================================================================
                                 internuclear angles
 ------------------------------------------------------------------------------
        center 1       |       center 2       |       center 3       |  degrees
 ------------------------------------------------------------------------------
    2 C2               |   1 C1               |   3 H3               |   121.62
    2 C2               |   1 C1               |   4 H4               |   121.58
    3 H3               |   1 C1               |   4 H4               |   116.80
    1 C1               |   2 C2               |   5 H5               |   118.82
    1 C1               |   2 C2               |   6 H6               |   125.13
    5 H5               |   2 C2               |   6 H6               |   116.05
 ------------------------------------------------------------------------------
                            number of included internuclear angles:          6
 ==============================================================================



                                 Step1: SP with HF
                                 -----------------
                                 NWChem SCF Module
                                 -----------------
 
 
                                 Step1: SP with HF
 
 

  ao basis        = "ao basis"
  functions       =    50
  atoms           =     6
  closed shells   =     8
  open shells     =     0
  charge          =   0.00
  wavefunction    = RHF 
  input vectors   = atomic
  output vectors  = ./ethene.hf.movecs
  use symmetry    = F
  symmetry adapt  = F


 Summary of "ao basis" -> "ao basis" (cartesian)
 ------------------------------------------------------------------------------
       Tag                 Description            Shells   Functions and Types
 ---------------- ------------------------------  ------  ---------------------
 H                       user specified              3        5   2s1p
 C                       user specified              6       15   3s2p1d



 Forming initial guess at      14.8s

 
      Superposition of Atomic Density Guess
      -------------------------------------
 
 Sum of atomic energies:         -77.32724368
 
      Non-variational initial energy
      ------------------------------

 Total energy =     -78.389765
 1-e energy   =    -167.679276
 2-e energy   =      56.175085
 HOMO         =      -0.330872
 LUMO         =       0.002227
 

 Starting SCF solution at      20.7s



 ----------------------------------------------
         Quadratically convergent ROHF

 Convergence threshold     :          1.000E-04
 Maximum no. of iterations :           30
 Final Fock-matrix accuracy:          1.000E-07
 ----------------------------------------------


              iter       energy          gnorm     gmax       time
             ----- ------------------- --------- --------- --------
                 1      -78.0190804227  4.94D-01  1.67D-01      0.4
                 2      -78.0400221017  1.27D-01  4.78D-02      0.6
                 3      -78.0417132670  3.98D-03  2.34D-03      1.2
                 4      -78.0417156490  9.58D-06  3.81D-06      2.2


       Final RHF  results 
       ------------------ 

         Total SCF energy =    -78.041715648952
      One-electron energy =   -169.520641906594
      Two-electron energy =     58.364499822995
 Nuclear repulsion energy =     33.114426434647

        Time for solution =      2.0s


             Final eigenvalues
             -----------------

              1      
    1  -11.2400
    2  -11.2384
    3   -1.0280
    4   -0.7910
    5   -0.6375
    6   -0.5846
    7   -0.5045
    8   -0.3718
    9    0.1484
   10    0.2535
   11    0.2864
   12    0.3546
   13    0.3968
   14    0.3993
   15    0.4063
   16    0.4207
   17    0.4793
   18    0.5855
 
                       ROHF Final Molecular Orbital Analysis
                       -------------------------------------
 
 Vector    2  Occ=2.000000D+00  E=-1.123839D+01
              MO Center= -1.9D-01,  1.2D-02, -5.1D-02, r^2= 4.4D-01
   Bfn.  Coefficient  Atom+Function         Bfn.  Coefficient  Atom+Function  
  ----- ------------  ---------------      ----- ------------  ---------------
     1      0.802763  1 C  s                 16     -0.594529  2 C  s          
 
 Vector    3  Occ=2.000000D+00  E=-1.028012D+00
              MO Center= -3.1D-03,  5.5D-03,  8.0D-04, r^2= 1.1D+00
   Bfn.  Coefficient  Atom+Function         Bfn.  Coefficient  Atom+Function  
  ----- ------------  ---------------      ----- ------------  ---------------
     2      0.312333  1 C  s                 17      0.311577  2 C  s          
     1     -0.162591  1 C  s                 16     -0.162074  2 C  s          
 
 Vector    4  Occ=2.000000D+00  E=-7.909689D-01
              MO Center=  5.6D-03, -6.3D-03, -3.0D-04, r^2= 2.1D+00
   Bfn.  Coefficient  Atom+Function         Bfn.  Coefficient  Atom+Function  
  ----- ------------  ---------------      ----- ------------  ---------------
     2      0.249030  1 C  s                 17     -0.249977  2 C  s          
     4     -0.187234  1 C  px                19     -0.187685  2 C  px         
 
 Vector    5  Occ=2.000000D+00  E=-6.375017D-01
              MO Center= -1.5D-02, -2.2D-02, -1.1D-02, r^2= 1.9D+00
   Bfn.  Coefficient  Atom+Function         Bfn.  Coefficient  Atom+Function  
  ----- ------------  ---------------      ----- ------------  ---------------
     5      0.362892  1 C  py                20      0.359512  2 C  py         
    36     -0.155612  4 H  s          
 
 Vector    6  Occ=2.000000D+00  E=-5.846119D-01
              MO Center= -4.6D-03,  1.7D-02,  4.0D-03, r^2= 1.7D+00
   Bfn.  Coefficient  Atom+Function         Bfn.  Coefficient  Atom+Function  
  ----- ------------  ---------------      ----- ------------  ---------------
     4      0.456906  1 C  px                19     -0.456862  2 C  px         
 
 Vector    7  Occ=2.000000D+00  E=-5.044579D-01
              MO Center=  1.9D-02,  1.5D-02,  1.0D-02, r^2= 2.3D+00
   Bfn.  Coefficient  Atom+Function         Bfn.  Coefficient  Atom+Function  
  ----- ------------  ---------------      ----- ------------  ---------------
    20     -0.348141  2 C  py                 5      0.340118  1 C  py         
    41     -0.189022  5 H  s                 36     -0.182272  4 H  s          
    31      0.169953  3 H  s                 42     -0.167589  5 H  s          
    46      0.168331  6 H  s                 37     -0.158541  4 H  s          
 
 Vector    8  Occ=2.000000D+00  E=-3.718472D-01
              MO Center= -1.1D-03, -2.8D-03, -1.2D-03, r^2= 1.5D+00
   Bfn.  Coefficient  Atom+Function         Bfn.  Coefficient  Atom+Function  
  ----- ------------  ---------------      ----- ------------  ---------------
     6      0.416799  1 C  pz                21      0.416607  2 C  pz         
     9      0.188073  1 C  pz                24      0.188114  2 C  pz         
 
 Vector    9  Occ=0.000000D+00  E= 1.484383D-01
              MO Center= -5.3D-05, -4.4D-03, -1.4D-03, r^2= 2.9D+00
   Bfn.  Coefficient  Atom+Function         Bfn.  Coefficient  Atom+Function  
  ----- ------------  ---------------      ----- ------------  ---------------
     9      0.724625  1 C  pz                24     -0.724740  2 C  pz         
     6      0.354900  1 C  pz                21     -0.354984  2 C  pz         
     8     -0.221651  1 C  py                23      0.221671  2 C  py         
     7     -0.208752  1 C  px                22      0.208792  2 C  px         
 
 Vector   10  Occ=0.000000D+00  E= 2.535133D-01
              MO Center=  3.5D-03, -7.3D-03, -1.2D-03, r^2= 6.6D+00
   Bfn.  Coefficient  Atom+Function         Bfn.  Coefficient  Atom+Function  
  ----- ------------  ---------------      ----- ------------  ---------------
     3      3.225763  1 C  s                 18     -3.213387  2 C  s          
    22      1.855587  2 C  px                 7      1.845401  1 C  px         
     9      0.503567  1 C  pz                24      0.463014  2 C  pz         
    23     -0.234200  2 C  py                42      0.155204  5 H  s          
 
 Vector   11  Occ=0.000000D+00  E= 2.863716D-01
              MO Center= -6.6D-03,  7.4D-03,  3.7D-04, r^2= 4.2D+00
   Bfn.  Coefficient  Atom+Function         Bfn.  Coefficient  Atom+Function  
  ----- ------------  ---------------      ----- ------------  ---------------
     3      1.945803  1 C  s                 18      1.912422  2 C  s          
    42     -1.370601  5 H  s                 37     -1.277253  4 H  s          
    32     -1.206820  3 H  s                  7     -1.115178  1 C  px         
    22      1.113236  2 C  px                47     -1.087333  6 H  s          
    24      0.373802  2 C  pz                 9     -0.332459  1 C  pz         
 
 Vector   12  Occ=0.000000D+00  E= 3.545991D-01
              MO Center=  1.9D-02, -8.8D-02, -2.1D-02, r^2= 3.6D+00
   Bfn.  Coefficient  Atom+Function         Bfn.  Coefficient  Atom+Function  
  ----- ------------  ---------------      ----- ------------  ---------------
    47      1.021815  6 H  s                 32     -0.862655  3 H  s          
    37      0.840133  4 H  s                 42     -0.725101  5 H  s          
    23      0.525878  2 C  py                 8      0.493490  1 C  py         
    20      0.355579  2 C  py                 5      0.343551  1 C  py         
    22     -0.179895  2 C  px         
 
 Vector   13  Occ=0.000000D+00  E= 3.968089D-01
              MO Center= -6.8D-02,  1.2D-02, -1.6D-02, r^2= 5.1D+00
   Bfn.  Coefficient  Atom+Function         Bfn.  Coefficient  Atom+Function  
  ----- ------------  ---------------      ----- ------------  ---------------
     7      1.563638  1 C  px                42     -1.052593  5 H  s          
     3     -1.042134  1 C  s                 23      0.987970  2 C  py         
    32      0.919527  3 H  s                  8     -0.813949  1 C  py         
    22     -0.469746  2 C  px                37      0.448223  4 H  s          
    19      0.412220  2 C  px                 4     -0.312016  1 C  px         
 
 Vector   14  Occ=0.000000D+00  E= 3.992850D-01
              MO Center=  4.0D-02, -9.9D-02, -1.9D-02, r^2= 4.8D+00
   Bfn.  Coefficient  Atom+Function         Bfn.  Coefficient  Atom+Function  
  ----- ------------  ---------------      ----- ------------  ---------------
    22      1.820152  2 C  px                32      1.780766  3 H  s          
    42     -1.755583  5 H  s                 18      1.360701  2 C  s          
    47     -1.348519  6 H  s                 37      1.247671  4 H  s          
     7      0.980107  1 C  px                 3     -0.903627  1 C  s          
     8     -0.645587  1 C  py                24      0.640217  2 C  pz         
 
 Vector   15  Occ=0.000000D+00  E= 4.062686D-01
              MO Center= -8.0D-02, -7.8D-03, -2.6D-02, r^2= 3.9D+00
   Bfn.  Coefficient  Atom+Function         Bfn.  Coefficient  Atom+Function  
  ----- ------------  ---------------      ----- ------------  ---------------
     8      1.692847  1 C  py                37      1.280318  4 H  s          
    32     -1.097662  3 H  s                 23      1.003996  2 C  py         
    42     -0.934273  5 H  s                 47      0.817438  6 H  s          
     9      0.527128  1 C  pz                24      0.304966  2 C  pz         
     5     -0.280410  1 C  py                20     -0.230953  2 C  py         
 
 Vector   16  Occ=0.000000D+00  E= 4.207106D-01
              MO Center=  9.7D-02,  1.5D-01,  7.4D-02, r^2= 5.4D+00
   Bfn.  Coefficient  Atom+Function         Bfn.  Coefficient  Atom+Function  
  ----- ------------  ---------------      ----- ------------  ---------------
    23     -4.332345  2 C  py                 8      4.138678  1 C  py         
    47     -2.355289  6 H  s                 37      2.091090  4 H  s          
    32     -1.604224  3 H  s                 42      1.523263  5 H  s          
     9      1.365650  1 C  pz                24     -1.216989  2 C  pz         
    22      0.375334  2 C  px                 7      0.346070  1 C  px         
 
 Vector   17  Occ=0.000000D+00  E= 4.792517D-01
              MO Center= -2.8D-03, -7.6D-03, -3.1D-03, r^2= 3.4D+00
   Bfn.  Coefficient  Atom+Function         Bfn.  Coefficient  Atom+Function  
  ----- ------------  ---------------      ----- ------------  ---------------
     9      0.625569  1 C  pz                24      0.621310  2 C  pz         
     6     -0.563966  1 C  pz                21     -0.563212  2 C  pz         
     8     -0.191452  1 C  py                23     -0.189935  2 C  py         
     7     -0.180282  1 C  px                22     -0.179052  2 C  px         
     5      0.172508  1 C  py                20      0.172263  2 C  py         
 
 Vector   18  Occ=0.000000D+00  E= 5.855116D-01
              MO Center=  4.5D-04, -4.6D-03, -1.3D-03, r^2= 3.7D+00
   Bfn.  Coefficient  Atom+Function         Bfn.  Coefficient  Atom+Function  
  ----- ------------  ---------------      ----- ------------  ---------------
     9      1.334184  1 C  pz                24     -1.334676  2 C  pz         
     6     -0.648333  1 C  pz                21      0.650684  2 C  pz         
     8     -0.408134  1 C  py                23      0.408278  2 C  py         
     7     -0.384403  1 C  px                22      0.384542  2 C  px         
     5      0.198311  1 C  py                20     -0.199015  2 C  py         
 

 center of mass
 --------------
 x =  -0.00065717 y =  -0.00298485 z =  -0.00110364

 moments of inertia (a.u.)
 ------------------
          16.647162712637           4.754438856775         -14.926791633223
           4.754438856775          61.830747612737          -2.200799397961
         -14.926791633223          -2.200799397961          68.530477997327
 
  Mulliken analysis of the total density
  --------------------------------------

    Atom       Charge   Shell Charges
 -----------   ------   -------------------------------------------------------
    1 C    6     6.22   2.00  0.69  0.38  2.51  0.54  0.11
    2 C    6     6.22   2.00  0.69  0.38  2.51  0.54  0.11
    3 H    1     0.89   0.49  0.36  0.03
    4 H    1     0.89   0.49  0.36  0.03
    5 H    1     0.89   0.49  0.36  0.03
    6 H    1     0.89   0.49  0.36  0.04
 
       Multipole analysis of the density wrt the origin
       ------------------------------------------------
 
     L   x y z        total         open         nuclear
     -   - - -        -----         ----         -------
     0   0 0 0     -0.000000      0.000000     16.000000
 
     1   1 0 0      0.001360      0.000000      0.000000
     1   0 1 0      0.001399      0.000000      0.000000
     1   0 0 1      0.000828      0.000000      0.000000
 
     2   2 0 0     -9.086629      0.000000     38.665377
     2   1 1 0     -0.303530      0.000000     -3.233057
     2   1 0 1      0.701423      0.000000     10.150641
     2   0 2 0     -9.312982      0.000000     11.458315
     2   0 1 1      0.686693      0.000000      2.573347
     2   0 0 2    -11.431776      0.000000      3.711532
 

 Task  times  cpu:        2.2s     wall:       10.6s
 
 
                                NWChem Input Module
                                -------------------
 
 
                                Step2: SP with DFT
                                ------------------
 
                                 NWChem DFT Module
                                 -----------------
 
 
                                Step2: SP with DFT
 
 


 Summary of "ao basis" -> "ao basis" (cartesian)
 ------------------------------------------------------------------------------
       Tag                 Description            Shells   Functions and Types
 ---------------- ------------------------------  ------  ---------------------
 H                       user specified              3        5   2s1p
 C                       user specified              6       15   3s2p1d


  Caching 1-el integrals 
  itol2e modified to match energy
  convergence criterion.
  tol_rho modified to match energy
  convergence criterion.
 
            General Information
            -------------------
          SCF calculation type: DFT
          Wavefunction type:  closed shell.
          No. of atoms     :     6
          No. of electrons :    16
           Alpha electrons :     8
            Beta electrons :     8
          Charge           :     0
          Spin multiplicity:     1
          Use of symmetry is: off; symmetry adaption is: off
          Maximum number of iterations:  30
          This is a Direct SCF calculation.
          AO basis - number of functions:    50
                     number of shells:    24
          Convergence on energy requested:  1.00D-08
          Convergence on density requested:  1.00D-07
          Convergence on gradient requested:  1.00D-06
 
              XC Information
              --------------
                         PBE0 Method XC Functional
                     Hartree-Fock (Exact) Exchange  0.250          
          PerdewBurkeErnzerhof Exchange Functional  0.750          
            Perdew 1991 LDA Correlation Functional  1.000 local    
           PerdewBurkeErnz. Correlation Functional  1.000 non-local
 
             Grid Information
             ----------------
          Grid used for XC integration:  xfine     
          Radial quadrature: Mura-Knowles        
          Angular quadrature: Lebedev. 
          Tag              B.-S. Rad. Rad. Pts. Rad. Cut. Ang. Pts.
          ---              ---------- --------- --------- ---------
          C1                  0.70      100           8.0      1454
          C2                  0.70      100           8.0      1454
          H3                  0.35      100           9.0      1202
          H4                  0.35      100           9.0      1202
          H5                  0.35      100           9.0      1202
          H6                  0.35      100           9.0      1202
          Grid pruning is: on 
          Number of quadrature shells:   600
          Spatial weights used:  Erf1
 
          Convergence Information
          -----------------------
          Convergence aids based upon iterative change in 
          total energy or number of iterations. 
          Levelshifting, if invoked, occurs when the 
          HOMO/LUMO gap drops below (HL_TOL):  1.00D-02
          DIIS, if invoked, will attempt to extrapolate 
          using up to (NFOCK): 10 stored Fock matrices.

                    Damping( 0%)  Levelshifting(0.5)       DIIS
                  --------------- ------------------- ---------------
          dE  on:    start            ASAP                start   
          dE off:    2 iters         30 iters           150 iters 

 
      Screening Tolerance Information
      -------------------------------
          Density screening/tol_rho:  1.00D-11
          AO Gaussian exp screening on grid/accAOfunc:  18
          CD Gaussian exp screening on grid/accCDfunc:  20
          XC Gaussian exp screening on grid/accXCfunc:  20
          Schwarz screening/accCoul:  1.00D-09

      Dispersion Parameters
      ---------------------

             DFT-D3 Model   
          s8 scale factor  :        1.000000000000
          sr6 scale factor :        0.928000000000
          sr8 scale factor :        1.287000000000
              vdW contrib  :        1.000000000000


             DFT-D3 Model   
          s8 scale factor  :       -0.000495028939
          sr6 scale factor :

 Loading old vectors from job with title :

Step1: SP with HF

   Time after variat. SCF:     27.8
   Time prior to 1st pass:     27.8

           Memory utilization after 1st SCF pass: 
           Heap Space remaining (MW):       96.85            96845020
          Stack Space remaining (MW):       96.85            96847212

   convergence    iter        energy       DeltaE   RMS-Dens  Diis-err    time
 ---------------- ----- ----------------- --------- --------- ---------  ------
 d= 0,ls=0.0,diis     1    -78.4827916242 -1.12D+02  7.67D-03  9.91D-02    32.3
 d= 0,ls=0.0,diis     2    -78.4894222294 -6.63D-03  1.88D-03  7.19D-03    35.5
 d= 0,ls=0.0,diis     3    -78.4897757697 -3.54D-04  9.12D-04  4.48D-03    38.6
 d= 0,ls=0.0,diis     4    -78.4904089034 -6.33D-04  2.85D-05  6.34D-06    41.7
 d= 0,ls=0.0,diis     5    -78.4904096965 -7.93D-07  8.50D-06  1.74D-07    44.9
 d= 0,ls=0.0,diis     6    -78.4904097032 -6.76D-09  4.25D-06  1.40D-07    48.1
 d= 0,ls=0.0,diis     7    -78.4904097221 -1.89D-08  3.33D-07  3.07D-10    51.2
 d= 0,ls=0.0,diis     8    -78.4904097222 -4.93D-11  3.87D-08  5.04D-12    54.2


         Total DFT energy =      -78.490409722159
      One electron energy =     -169.784602044845
           Coulomb energy =       70.345251681352
    Exchange-Corr. energy =      -12.164990764373
 Nuclear repulsion energy =       33.114426434647

    Dispersion correction =       -0.000495028939

 Numeric. integr. density =       16.000000014244

     Total iterative time =     26.4s


 
                       DFT Final Molecular Orbital Analysis
                       ------------------------------------
 
 Vector    1  Occ=2.000000D+00  E=-1.023901D+01
              MO Center=  2.9D-01, -2.8D-02,  7.5D-02, r^2= 3.9D-01
   Bfn.  Coefficient  Atom+Function         Bfn.  Coefficient  Atom+Function  
  ----- ------------  ---------------      ----- ------------  ---------------
    16      0.847494  2 C  s                  1      0.523311  1 C  s          
 
 Vector    2  Occ=2.000000D+00  E=-1.023804D+01
              MO Center= -2.9D-01,  2.1D-02, -7.8D-02, r^2= 3.9D-01
   Bfn.  Coefficient  Atom+Function         Bfn.  Coefficient  Atom+Function  
  ----- ------------  ---------------      ----- ------------  ---------------
     1      0.847502  1 C  s                 16     -0.523334  2 C  s          
 
 Vector    3  Occ=2.000000D+00  E=-7.795532D-01
              MO Center= -3.2D-03,  6.7D-03,  1.1D-03, r^2= 1.1D+00
   Bfn.  Coefficient  Atom+Function         Bfn.  Coefficient  Atom+Function  
  ----- ------------  ---------------      ----- ------------  ---------------
     2      0.314612  1 C  s                 17      0.313826  2 C  s          
     1     -0.165430  1 C  s                 16     -0.164881  2 C  s          
     3      0.144565  1 C  s                 18      0.144505  2 C  s          
    19     -0.115718  2 C  px                 4      0.115096  1 C  px         
    41      0.085130  5 H  s                 31      0.084367  3 H  s          
 
 Vector    4  Occ=2.000000D+00  E=-5.966579D-01
              MO Center=  6.4D-03, -7.0D-03, -3.0D-04, r^2= 2.1D+00
   Bfn.  Coefficient  Atom+Function         Bfn.  Coefficient  Atom+Function  
  ----- ------------  ---------------      ----- ------------  ---------------
     2      0.256351  1 C  s                 17     -0.257425  2 C  s          
     4     -0.190746  1 C  px                19     -0.191663  2 C  px         
    18     -0.157668  2 C  s                  3      0.155976  1 C  s          
    46     -0.143517  6 H  s                 31      0.139476  3 H  s          
    36      0.139157  4 H  s                 41     -0.136006  5 H  s          
 
 Vector    5  Occ=2.000000D+00  E=-4.791758D-01
              MO Center= -1.3D-02, -2.1D-02, -1.0D-02, r^2= 1.9D+00
   Bfn.  Coefficient  Atom+Function         Bfn.  Coefficient  Atom+Function  
  ----- ------------  ---------------      ----- ------------  ---------------
     5      0.376623  1 C  py                20      0.373615  2 C  py         
    36     -0.154972  4 H  s                 46     -0.148656  6 H  s          
    31      0.144163  3 H  s                 41      0.144506  5 H  s          
     6      0.120300  1 C  pz                21      0.108271  2 C  pz         
     8      0.078243  1 C  py                47     -0.077279  6 H  s          
 
 Vector    6  Occ=2.000000D+00  E=-4.301852D-01
              MO Center= -5.2D-03,  1.5D-02,  3.0D-03, r^2= 1.7D+00
   Bfn.  Coefficient  Atom+Function         Bfn.  Coefficient  Atom+Function  
  ----- ------------  ---------------      ----- ------------  ---------------
     4      0.466025  1 C  px                19     -0.465734  2 C  px         
    31     -0.130954  3 H  s                 46     -0.125149  6 H  s          
    21     -0.121500  2 C  pz                 6      0.110696  1 C  pz         
    41     -0.101956  5 H  s                 36     -0.096734  4 H  s          
     3     -0.082045  1 C  s                 18     -0.080284  2 C  s          
 
 Vector    7  Occ=2.000000D+00  E=-3.650725D-01
              MO Center=  1.8D-02,  1.6D-02,  9.9D-03, r^2= 2.3D+00
   Bfn.  Coefficient  Atom+Function         Bfn.  Coefficient  Atom+Function  
  ----- ------------  ---------------      ----- ------------  ---------------
    20     -0.357217  2 C  py                 5      0.349289  1 C  py         
    41     -0.196119  5 H  s                 36     -0.189567  4 H  s          
    31      0.176487  3 H  s                 46      0.174559  6 H  s          
    23     -0.172460  2 C  py                 8      0.170947  1 C  py         
    42     -0.123007  5 H  s                 21     -0.117295  2 C  pz         
 
 Vector    8  Occ=2.000000D+00  E=-2.827683D-01
              MO Center= -1.0D-03, -2.7D-03, -1.1D-03, r^2= 1.5D+00
   Bfn.  Coefficient  Atom+Function         Bfn.  Coefficient  Atom+Function  
  ----- ------------  ---------------      ----- ------------  ---------------
     6      0.438607  1 C  pz                21      0.438428  2 C  pz         
     9      0.166550  1 C  pz                24      0.166589  2 C  pz         
     5     -0.134174  1 C  py                20     -0.134088  2 C  py         
     4     -0.126363  1 C  px                19     -0.126315  2 C  px         
     8     -0.050952  1 C  py                23     -0.050946  2 C  py         
 
 Vector    9  Occ=0.000000D+00  E= 5.929956D-03
              MO Center= -6.5D-05, -4.1D-03, -1.3D-03, r^2= 2.3D+00
   Bfn.  Coefficient  Atom+Function         Bfn.  Coefficient  Atom+Function  
  ----- ------------  ---------------      ----- ------------  ---------------
     9      0.544850  1 C  pz                24     -0.544997  2 C  pz         
     6      0.448559  1 C  pz                21     -0.448656  2 C  pz         
     8     -0.166662  1 C  py                23      0.166694  2 C  py         
     7     -0.156963  1 C  px                22      0.157008  2 C  px         
     5     -0.137210  1 C  py                20      0.137224  2 C  py         
 
 Vector   10  Occ=0.000000D+00  E= 1.455478D-01
              MO Center=  1.9D-02, -1.9D-02, -2.0D-04, r^2= 6.0D+00
   Bfn.  Coefficient  Atom+Function         Bfn.  Coefficient  Atom+Function  
  ----- ------------  ---------------      ----- ------------  ---------------
     3      2.970630  1 C  s                 18     -2.965032  2 C  s          
    22      1.483373  2 C  px                 7      1.474370  1 C  px         
     9      0.406848  1 C  pz                24      0.372020  2 C  pz         
    32     -0.356247  3 H  s                 42      0.314114  5 H  s          
    47      0.286408  6 H  s                 37     -0.248141  4 H  s          
 
 Vector   11  Occ=0.000000D+00  E= 1.581334D-01
              MO Center= -7.3D-03,  6.0D-02,  1.6D-02, r^2= 3.9D+00
   Bfn.  Coefficient  Atom+Function         Bfn.  Coefficient  Atom+Function  
  ----- ------------  ---------------      ----- ------------  ---------------
     3      1.616401  1 C  s                 18      1.589871  2 C  s          
    42     -1.218216  5 H  s                 37     -1.116513  4 H  s          
    32     -1.094904  3 H  s                 47     -0.968066  6 H  s          
     7     -0.821952  1 C  px                22      0.816809  2 C  px         
    24      0.277209  2 C  pz                 9     -0.243442  1 C  pz         
 
 Vector   12  Occ=0.000000D+00  E= 1.947246D-01
              MO Center=  5.4D-03, -9.4D-02, -2.7D-02, r^2= 3.5D+00
   Bfn.  Coefficient  Atom+Function         Bfn.  Coefficient  Atom+Function  
  ----- ------------  ---------------      ----- ------------  ---------------
    47      0.755705  6 H  s                 37      0.706388  4 H  s          
    32     -0.592627  3 H  s                 42     -0.589867  5 H  s          
    20      0.412447  2 C  py                 5      0.399737  1 C  py         
    23      0.295925  2 C  py                 8      0.259961  1 C  py         
     3     -0.256736  1 C  s                 22     -0.163786  2 C  px         
 
 Vector   13  Occ=0.000000D+00  E= 2.649222D-01
              MO Center= -3.3D-01,  5.0D-03, -9.5D-02, r^2= 4.9D+00
   Bfn.  Coefficient  Atom+Function         Bfn.  Coefficient  Atom+Function  
  ----- ------------  ---------------      ----- ------------  ---------------
     7      1.661389  1 C  px                 3     -0.900588  1 C  s          
    32      0.810134  3 H  s                 18     -0.699540  2 C  s          
    22     -0.576274  2 C  px                37      0.550018  4 H  s          
     8     -0.506862  1 C  py                19      0.419082  2 C  px         
    42     -0.383406  5 H  s                 23      0.374603  2 C  py         
 
 Vector   14  Occ=0.000000D+00  E= 2.670193D-01
              MO Center=  3.2D-01, -2.7D-02,  8.3D-02, r^2= 4.7D+00
   Bfn.  Coefficient  Atom+Function         Bfn.  Coefficient  Atom+Function  
  ----- ------------  ---------------      ----- ------------  ---------------
    22      1.970869  2 C  px                42     -1.478223  5 H  s          
    32      1.363960  3 H  s                 47     -1.348794  6 H  s          
     7      1.166430  1 C  px                37      1.129817  4 H  s          
    18      0.649286  2 C  s                 24      0.588602  2 C  pz         
     8     -0.324987  1 C  py                 4      0.282896  1 C  px         
 
 Vector   15  Occ=0.000000D+00  E= 2.883906D-01
              MO Center= -1.0D-01,  2.5D-02, -2.1D-02, r^2= 3.8D+00
   Bfn.  Coefficient  Atom+Function         Bfn.  Coefficient  Atom+Function  
  ----- ------------  ---------------      ----- ------------  ---------------
     8      1.758169  1 C  py                37      1.300598  4 H  s          
    32     -1.102457  3 H  s                 42     -0.894318  5 H  s          
    23      0.850452  2 C  py                47      0.785281  6 H  s          
     9      0.575383  1 C  pz                 5     -0.291584  1 C  py         
    24      0.229010  2 C  pz                 3     -0.198864  1 C  s          
 
 Vector   16  Occ=0.000000D+00  E= 2.930517D-01
              MO Center=  1.0D-01,  4.4D-02,  4.3D-02, r^2= 4.8D+00
   Bfn.  Coefficient  Atom+Function         Bfn.  Coefficient  Atom+Function  
  ----- ------------  ---------------      ----- ------------  ---------------
    23      3.280275  2 C  py                 8     -2.871395  1 C  py         
    47      1.513926  6 H  s                 42     -1.196640  5 H  s          
    37     -1.154078  4 H  s                 32      0.969738  3 H  s          
    24      0.954351  2 C  pz                 9     -0.931740  1 C  pz         
    20     -0.446669  2 C  py                 5      0.369545  1 C  py         
 
 Vector   17  Occ=0.000000D+00  E= 3.280763D-01
              MO Center= -1.9D-03, -6.4D-03, -2.5D-03, r^2= 3.4D+00
   Bfn.  Coefficient  Atom+Function         Bfn.  Coefficient  Atom+Function  
  ----- ------------  ---------------      ----- ------------  ---------------
     9     -0.616934  1 C  pz                24     -0.614288  2 C  pz         
     6      0.561731  1 C  pz                21      0.561644  2 C  pz         
     8      0.188827  1 C  py                23      0.187768  2 C  py         
     7      0.177824  1 C  px                22      0.177057  2 C  px         
     5     -0.171833  1 C  py                20     -0.171775  2 C  py         
 
 Vector   18  Occ=0.000000D+00  E= 4.114267D-01
              MO Center=  1.9D-04, -6.6D-03, -2.0D-03, r^2= 4.1D+00
   Bfn.  Coefficient  Atom+Function         Bfn.  Coefficient  Atom+Function  
  ----- ------------  ---------------      ----- ------------  ---------------
     9      1.348047  1 C  pz                24     -1.347748  2 C  pz         
     6     -0.626066  1 C  pz                21      0.627540  2 C  pz         
     8     -0.412365  1 C  py                23      0.412272  2 C  py         
     7     -0.388395  1 C  px                22      0.388304  2 C  px         
     5      0.191502  1 C  py                20     -0.191937  2 C  py         
 
 Vector   19  Occ=0.000000D+00  E= 4.777715D-01
              MO Center=  3.5D-02, -1.8D-01, -4.5D-02, r^2= 2.6D+00
   Bfn.  Coefficient  Atom+Function         Bfn.  Coefficient  Atom+Function  
  ----- ------------  ---------------      ----- ------------  ---------------
    47     -1.795049  6 H  s                 37      1.779369  4 H  s          
    23     -1.621773  2 C  py                 8      1.597690  1 C  py         
    18      1.300831  2 C  s                 22      1.086934  2 C  px         
     3     -0.989908  1 C  s                  7      0.906134  1 C  px         
     9      0.749760  1 C  pz                 4     -0.496449  1 C  px         
 
 Vector   20  Occ=0.000000D+00  E= 5.152731D-01
              MO Center= -7.1D-02,  1.5D-02, -1.6D-02, r^2= 2.6D+00
   Bfn.  Coefficient  Atom+Function         Bfn.  Coefficient  Atom+Function  
  ----- ------------  ---------------      ----- ------------  ---------------
     3      2.440463  1 C  s                 18      2.134577  2 C  s          
    32     -1.388919  3 H  s                 47     -1.180920  6 H  s          
     8      1.049468  1 C  py                23     -0.961913  2 C  py         
    17     -0.758066  2 C  s                  2     -0.735252  1 C  s          
     7     -0.438017  1 C  px                22      0.357541  2 C  px         
 
 Vector   21  Occ=0.000000D+00  E= 5.346528D-01
              MO Center=  2.9D-02,  5.8D-02,  2.6D-02, r^2= 5.0D+00
   Bfn.  Coefficient  Atom+Function         Bfn.  Coefficient  Atom+Function  
  ----- ------------  ---------------      ----- ------------  ---------------
     8      5.849658  1 C  py                23     -5.829374  2 C  py         
    32     -3.465670  3 H  s                 42      3.475212  5 H  s          
    37      3.111860  4 H  s                 47     -3.086793  6 H  s          
    24     -1.744471  2 C  pz                 9      1.717876  1 C  pz         
    18     -0.662040  2 C  s                 20     -0.371850  2 C  py         
 
 Vector   22  Occ=0.000000D+00  E= 5.617828D-01
              MO Center= -1.7D-02,  2.7D-02,  3.3D-03, r^2= 3.2D+00
   Bfn.  Coefficient  Atom+Function         Bfn.  Coefficient  Atom+Function  
  ----- ------------  ---------------      ----- ------------  ---------------
    45      0.452221  5 H  pz                35      0.447051  3 H  pz         
    40     -0.448082  4 H  pz                50     -0.427483  6 H  pz         
    44     -0.138505  5 H  py                34     -0.136591  3 H  py         
    39      0.136983  4 H  py                29      0.130447  2 C  dyz        
    49      0.130859  6 H  py                43     -0.130120  5 H  px         
 
 Vector   23  Occ=0.000000D+00  E= 6.274918D-01
              MO Center=  2.1D-02,  2.1D-02,  1.3D-02, r^2= 3.5D+00
   Bfn.  Coefficient  Atom+Function         Bfn.  Coefficient  Atom+Function  
  ----- ------------  ---------------      ----- ------------  ---------------
    50      0.501858  6 H  pz                35      0.494190  3 H  pz         
    45     -0.471477  5 H  pz                40     -0.464636  4 H  pz         
    49     -0.153498  6 H  py                34     -0.151162  3 H  py         
    44      0.144198  5 H  py                48     -0.144560  6 H  px         
    33     -0.142342  3 H  px                39      0.142124  4 H  py         
 
 Vector   24  Occ=0.000000D+00  E= 7.311967D-01
              MO Center=  1.4D-02, -1.3D-02,  5.9D-05, r^2= 3.2D+00
   Bfn.  Coefficient  Atom+Function         Bfn.  Coefficient  Atom+Function  
  ----- ------------  ---------------      ----- ------------  ---------------
    40      0.537580  4 H  pz                45      0.534635  5 H  pz         
    50      0.511265  6 H  pz                35      0.491922  3 H  pz         
    24     -0.328867  2 C  pz                 9     -0.312622  1 C  pz         
    12     -0.196296  1 C  dxz               27      0.194723  2 C  dxz        
    39     -0.164421  4 H  py                44     -0.163536  5 H  py         
 
 Vector   25  Occ=0.000000D+00  E= 7.800535D-01
              MO Center= -1.4D-02, -1.8D-03, -4.7D-03, r^2= 4.6D+00
   Bfn.  Coefficient  Atom+Function         Bfn.  Coefficient  Atom+Function  
  ----- ------------  ---------------      ----- ------------  ---------------
     3      7.569199  1 C  s                 18     -7.564950  2 C  s          
    37     -2.441385  4 H  s                 47      2.422955  6 H  s          
    32     -2.186521  3 H  s                 42      2.181273  5 H  s          
    17      0.831307  2 C  s                  2     -0.821001  1 C  s          
    34      0.673240  3 H  py                49      0.619284  6 H  py         
 
 Vector   26  Occ=0.000000D+00  E= 8.447778D-01
              MO Center=  1.5D-03,  5.3D-02,  1.7D-02, r^2= 4.3D+00
   Bfn.  Coefficient  Atom+Function         Bfn.  Coefficient  Atom+Function  
  ----- ------------  ---------------      ----- ------------  ---------------
     3      2.700600  1 C  s                 18      2.709567  2 C  s          
    37     -1.852583  4 H  s                 22      1.710773  2 C  px         
     7     -1.687510  1 C  px                47     -1.633093  6 H  s          
    42     -1.594496  5 H  s                 32     -1.355666  3 H  s          
     9     -0.553037  1 C  pz                24      0.503906  2 C  pz         
 
 Vector   27  Occ=0.000000D+00  E= 8.491922D-01
              MO Center= -2.2D-02, -1.4D-02, -1.1D-02, r^2= 3.9D+00
   Bfn.  Coefficient  Atom+Function         Bfn.  Coefficient  Atom+Function  
  ----- ------------  ---------------      ----- ------------  ---------------
     8      1.908098  1 C  py                23     -1.886596  2 C  py         
    32     -1.200392  3 H  s                 47     -0.978148  6 H  s          
    42      0.896220  5 H  s                 37      0.712368  4 H  s          
     3      0.653822  1 C  s                 39     -0.558298  4 H  py         
     9      0.528577  1 C  pz                43     -0.503387  5 H  px         
 
 Vector   28  Occ=0.000000D+00  E= 8.866193D-01
              MO Center= -6.1D-03,  1.3D-01,  4.0D-02, r^2= 3.9D+00
   Bfn.  Coefficient  Atom+Function         Bfn.  Coefficient  Atom+Function  
  ----- ------------  ---------------      ----- ------------  ---------------
    32      1.893568  3 H  s                 42      1.694753  5 H  s          
     8     -1.377818  1 C  py                23     -1.100673  2 C  py         
    43     -0.757103  5 H  px                18     -0.746439  2 C  s          
    37     -0.744886  4 H  s                 33      0.713537  3 H  px         
    47     -0.659494  6 H  s                  3     -0.641994  1 C  s          
 
 Vector   29  Occ=0.000000D+00  E= 9.278881D-01
              MO Center=  9.5D-02, -1.6D-01, -2.1D-02, r^2= 3.9D+00
   Bfn.  Coefficient  Atom+Function         Bfn.  Coefficient  Atom+Function  
  ----- ------------  ---------------      ----- ------------  ---------------
    47      1.379081  6 H  s                 18     -1.189941  2 C  s          
    37      1.041281  4 H  s                  3     -0.946760  1 C  s          
    48     -0.849549  6 H  px                38      0.813464  4 H  px         
    23      0.788104  2 C  py                32      0.616356  3 H  s          
    44     -0.476448  5 H  py                34     -0.439859  3 H  py         
 
 Vector   30  Occ=0.000000D+00  E= 9.399399D-01
              MO Center= -6.0D-02, -1.6D-02, -2.2D-02, r^2= 3.6D+00
   Bfn.  Coefficient  Atom+Function         Bfn.  Coefficient  Atom+Function  
  ----- ------------  ---------------      ----- ------------  ---------------
    47      1.403221  6 H  s                 37      1.277269  4 H  s          
    32     -0.938639  3 H  s                 42     -0.891497  5 H  s          
     3     -0.848271  1 C  s                 23      0.679715  2 C  py         
     8      0.618163  1 C  py                26      0.533580  2 C  dxy        
    46     -0.530558  6 H  s                 11     -0.527361  1 C  dxy        
 
 Vector   31  Occ=0.000000D+00  E= 9.553221D-01
              MO Center= -1.4D-02,  5.7D-03, -2.3D-03, r^2= 3.9D+00
   Bfn.  Coefficient  Atom+Function         Bfn.  Coefficient  Atom+Function  
  ----- ------------  ---------------      ----- ------------  ---------------
     9      1.012128  1 C  pz                24     -1.006052  2 C  pz         
    35     -0.699814  3 H  pz                50      0.696664  6 H  pz         
    40     -0.678241  4 H  pz                45      0.661081  5 H  pz         
     6      0.374086  1 C  pz                21     -0.368258  2 C  pz         
     8     -0.309634  1 C  py                23      0.307526  2 C  py         
 
 Vector   32  Occ=0.000000D+00  E= 9.925656D-01
              MO Center=  1.3D-02,  2.7D-02,  1.2D-02, r^2= 3.6D+00
   Bfn.  Coefficient  Atom+Function         Bfn.  Coefficient  Atom+Function  
  ----- ------------  ---------------      ----- ------------  ---------------
    18     -2.165867  2 C  s                  3      2.079311  1 C  s          
     7      1.772229  1 C  px                22      1.776015  2 C  px         
    37      0.948191  4 H  s                 42     -0.905326  5 H  s          
     4      0.662256  1 C  px                19      0.656035  2 C  px         
    43     -0.601017  5 H  px                38     -0.550615  4 H  px         
 
 Vector   33  Occ=0.000000D+00  E= 1.074307D+00
              MO Center=  1.6D-02,  7.5D-02,  2.8D-02, r^2= 3.1D+00
   Bfn.  Coefficient  Atom+Function         Bfn.  Coefficient  Atom+Function  
  ----- ------------  ---------------      ----- ------------  ---------------
     3      1.388930  1 C  s                 18     -1.323505  2 C  s          
    22      1.325390  2 C  px                 7      1.292024  1 C  px         
    47     -1.031462  6 H  s                 32      1.024082  3 H  s          
    42     -0.968525  5 H  s                 37      0.893710  4 H  s          
    31     -0.547097  3 H  s                 41      0.523970  5 H  s          
 
 Vector   34  Occ=0.000000D+00  E= 1.265548D+00
              MO Center=  5.5D-03,  6.2D-02,  2.1D-02, r^2= 2.9D+00
   Bfn.  Coefficient  Atom+Function         Bfn.  Coefficient  Atom+Function  
  ----- ------------  ---------------      ----- ------------  ---------------
    17      0.994907  2 C  s                  2      0.981543  1 C  s          
    44      0.733529  5 H  py                34      0.691626  3 H  py         
    39     -0.647419  4 H  py                22      0.633489  2 C  px         
     7     -0.624535  1 C  px                47     -0.623261  6 H  s          
    49     -0.619757  6 H  py                32     -0.616029  3 H  s          
 
 Vector   35  Occ=0.000000D+00  E= 1.302493D+00
              MO Center= -1.3D-03, -2.7D-02, -8.7D-03, r^2= 3.2D+00
   Bfn.  Coefficient  Atom+Function         Bfn.  Coefficient  Atom+Function  
  ----- ------------  ---------------      ----- ------------  ---------------
     8      2.880540  1 C  py                23     -2.856203  2 C  py         
    32     -1.964544  3 H  s                 47     -1.937061  6 H  s          
    37      1.803437  4 H  s                 42      1.721219  5 H  s          
     9      0.879803  1 C  pz                24     -0.804296  2 C  pz         
    20      0.695759  2 C  py                 5     -0.674865  1 C  py         
 
 Vector   36  Occ=0.000000D+00  E= 1.348305D+00
              MO Center= -4.3D-04, -4.0D-03, -1.4D-03, r^2= 1.8D+00
   Bfn.  Coefficient  Atom+Function         Bfn.  Coefficient  Atom+Function  
  ----- ------------  ---------------      ----- ------------  ---------------
    12      0.926979  1 C  dxz               27     -0.917441  2 C  dxz        
    50      0.382982  6 H  pz                35      0.376049  3 H  pz         
    40      0.370771  4 H  pz                45      0.368072  5 H  pz         
     6     -0.327813  1 C  pz                21     -0.327672  2 C  pz         
    26      0.293041  2 C  dxy               10     -0.288634  1 C  dxx        
 
 Vector   37  Occ=0.000000D+00  E= 1.433791D+00
              MO Center=  5.8D-03,  1.7D-03,  2.2D-03, r^2= 1.9D+00
   Bfn.  Coefficient  Atom+Function         Bfn.  Coefficient  Atom+Function  
  ----- ------------  ---------------      ----- ------------  ---------------
    29      1.086515  2 C  dyz               14      1.068857  1 C  dyz        
    45     -0.388783  5 H  pz                40      0.380474  4 H  pz         
    15      0.372756  1 C  dzz               28     -0.366126  2 C  dyy        
    13     -0.361828  1 C  dyy               30      0.361531  2 C  dzz        
    35     -0.357691  3 H  pz                11     -0.352279  1 C  dxy        
 
 Vector   38  Occ=0.000000D+00  E= 1.534443D+00
              MO Center=  1.1D-02, -5.3D-02, -1.3D-02, r^2= 3.4D+00
   Bfn.  Coefficient  Atom+Function         Bfn.  Coefficient  Atom+Function  
  ----- ------------  ---------------      ----- ------------  ---------------
    47     -2.715088  6 H  s                 37     -2.586149  4 H  s          
    32      2.513923  3 H  s                 42      2.504379  5 H  s          
    23     -1.548761  2 C  py                 8     -1.452372  1 C  py         
     5     -1.110631  1 C  py                20     -1.114670  2 C  py         
    49     -0.967752  6 H  py                34     -0.923046  3 H  py         
 
 Vector   39  Occ=0.000000D+00  E= 1.597382D+00
              MO Center=  4.2D-03, -8.6D-02, -2.5D-02, r^2= 3.6D+00
   Bfn.  Coefficient  Atom+Function         Bfn.  Coefficient  Atom+Function  
  ----- ------------  ---------------      ----- ------------  ---------------
    37      2.686355  4 H  s                 47     -2.660892  6 H  s          
    42     -1.902483  5 H  s                 32      1.812040  3 H  s          
    22      1.548061  2 C  px                 7      1.500122  1 C  px         
     2     -1.431417  1 C  s                 17      1.420903  2 C  s          
    18      1.186079  2 C  s                  3     -1.119044  1 C  s          
 
 Vector   40  Occ=0.000000D+00  E= 1.691129D+00
              MO Center= -1.1D-02,  7.3D-02,  1.9D-02, r^2= 3.2D+00
   Bfn.  Coefficient  Atom+Function         Bfn.  Coefficient  Atom+Function  
  ----- ------------  ---------------      ----- ------------  ---------------
     8      5.235987  1 C  py                23     -5.200304  2 C  py         
    32     -4.683345  3 H  s                 42      4.412193  5 H  s          
    47     -4.287030  6 H  s                 37      4.111655  4 H  s          
     9      1.560817  1 C  pz                24     -1.522558  2 C  pz         
    34      1.121264  3 H  py                 5      1.085381  1 C  py         
 
 Vector   41  Occ=0.000000D+00  E= 1.775324D+00
              MO Center= -9.4D-03,  5.5D-03, -1.0D-03, r^2= 1.8D+00
   Bfn.  Coefficient  Atom+Function         Bfn.  Coefficient  Atom+Function  
  ----- ------------  ---------------      ----- ------------  ---------------
    14      1.298419  1 C  dyz               29     -1.264260  2 C  dyz        
    30     -0.440543  2 C  dzz               13     -0.436121  1 C  dyy        
    28      0.427847  2 C  dyy               15      0.415634  1 C  dzz        
    26      0.416355  2 C  dxy               11     -0.388682  1 C  dxy        
    35     -0.362745  3 H  pz                45      0.360314  5 H  pz         
 
 Vector   42  Occ=0.000000D+00  E= 1.859185D+00
              MO Center=  3.1D-03,  3.0D-02,  1.0D-02, r^2= 2.3D+00
   Bfn.  Coefficient  Atom+Function         Bfn.  Coefficient  Atom+Function  
  ----- ------------  ---------------      ----- ------------  ---------------
     3      2.412169  1 C  s                 18      2.416875  2 C  s          
    47     -1.418096  6 H  s                 32     -1.369173  3 H  s          
    37     -1.177980  4 H  s                 42     -1.053487  5 H  s          
    34      0.752138  3 H  py                 4     -0.713485  1 C  px         
    19      0.698153  2 C  px                29      0.697275  2 C  dyz        
 
 Vector   43  Occ=0.000000D+00  E= 1.930026D+00
              MO Center=  2.5D-02, -9.1D-02, -2.1D-02, r^2= 2.1D+00
   Bfn.  Coefficient  Atom+Function         Bfn.  Coefficient  Atom+Function  
  ----- ------------  ---------------      ----- ------------  ---------------
     3      1.464062  1 C  s                 18      1.402425  2 C  s          
    37     -1.097324  4 H  s                 47     -0.914650  6 H  s          
    28     -0.779941  2 C  dyy               13     -0.669228  1 C  dyy        
    22      0.643257  2 C  px                36      0.624859  4 H  s          
    11     -0.605744  1 C  dxy               27      0.602807  2 C  dxz        
 
 Vector   44  Occ=0.000000D+00  E= 1.943798D+00
              MO Center=  3.8D-03, -1.0D-02, -2.1D-03, r^2= 1.6D+00
   Bfn.  Coefficient  Atom+Function         Bfn.  Coefficient  Atom+Function  
  ----- ------------  ---------------      ----- ------------  ---------------
    27      1.562990  2 C  dxz               12      1.546618  1 C  dxz        
    10     -0.483924  1 C  dxx               11     -0.484956  1 C  dxy        
    25     -0.486201  2 C  dxx               15      0.455236  1 C  dzz        
    26     -0.455525  2 C  dxy               30      0.421143  2 C  dzz        
    29     -0.340586  2 C  dyz               50     -0.236053  6 H  pz         
 
 Vector   45  Occ=0.000000D+00  E= 1.959011D+00
              MO Center= -3.3D-02,  6.4D-02,  1.0D-02, r^2= 2.0D+00
   Bfn.  Coefficient  Atom+Function         Bfn.  Coefficient  Atom+Function  
  ----- ------------  ---------------      ----- ------------  ---------------
     3      1.068151  1 C  s                 26     -1.037848  2 C  dxy        
    32     -1.011509  3 H  s                 11      0.883607  1 C  dxy        
    42     -0.821686  5 H  s                 18      0.780118  2 C  s          
    41      0.759308  5 H  s                 31      0.726764  3 H  s          
    12      0.632497  1 C  dxz               36     -0.564058  4 H  s          
 
 Vector   46  Occ=0.000000D+00  E= 2.168424D+00
              MO Center=  2.6D-03,  6.1D-03,  2.6D-03, r^2= 2.0D+00
   Bfn.  Coefficient  Atom+Function         Bfn.  Coefficient  Atom+Function  
  ----- ------------  ---------------      ----- ------------  ---------------
    18     -4.713743  2 C  s                  3      4.664757  1 C  s          
    37     -1.300696  4 H  s                 47      1.263883  6 H  s          
    42      1.244465  5 H  s                 32     -1.166203  3 H  s          
    15     -0.925072  1 C  dzz               30      0.924627  2 C  dzz        
     2      0.899171  1 C  s                 27     -0.896816  2 C  dxz        
 
 Vector   47  Occ=0.000000D+00  E= 2.393987D+00
              MO Center= -1.7D-02,  1.1D-02, -1.8D-03, r^2= 2.1D+00
   Bfn.  Coefficient  Atom+Function         Bfn.  Coefficient  Atom+Function  
  ----- ------------  ---------------      ----- ------------  ---------------
     3      2.404011  1 C  s                 18     -2.401911  2 C  s          
     7      1.028049  1 C  px                10     -1.030552  1 C  dxx        
    22      1.007303  2 C  px                25      1.011660  2 C  dxx        
    13      0.903790  1 C  dyy               28     -0.900890  2 C  dyy        
     4     -0.869655  1 C  px                19     -0.870442  2 C  px         
 
 Vector   48  Occ=0.000000D+00  E= 2.679612D+00
              MO Center= -3.5D-03, -1.7D-02, -6.3D-03, r^2= 2.0D+00
   Bfn.  Coefficient  Atom+Function         Bfn.  Coefficient  Atom+Function  
  ----- ------------  ---------------      ----- ------------  ---------------
    26      2.199472  2 C  dxy               11      2.182464  1 C  dxy        
     8      1.583298  1 C  py                23     -1.573092  2 C  py         
    32     -1.080653  3 H  s                 47     -1.061367  6 H  s          
    37      0.927972  4 H  s                 42      0.888145  5 H  s          
    36     -0.760890  4 H  s                 46      0.753124  6 H  s          
 
 Vector   49  Occ=0.000000D+00  E= 2.894579D+00
              MO Center=  1.3D-03, -3.2D-03, -6.0D-04, r^2= 1.4D+00
   Bfn.  Coefficient  Atom+Function         Bfn.  Coefficient  Atom+Function  
  ----- ------------  ---------------      ----- ------------  ---------------
    25      1.184264  2 C  dxx               10      1.168299  1 C  dxx        
    13      1.128544  1 C  dyy               28      1.110320  2 C  dyy        
     2     -0.983213  1 C  s                 17     -0.980901  2 C  s          
    15      0.875008  1 C  dzz               30      0.861231  2 C  dzz        
     4     -0.481882  1 C  px                19      0.467535  2 C  px         
 
 Vector   50  Occ=0.000000D+00  E= 3.567573D+00
              MO Center= -4.1D-04, -6.1D-03, -2.0D-03, r^2= 2.3D+00
   Bfn.  Coefficient  Atom+Function         Bfn.  Coefficient  Atom+Function  
  ----- ------------  ---------------      ----- ------------  ---------------
    10      2.089787  1 C  dxx               25     -2.098567  2 C  dxx        
    47      1.576704  6 H  s                 37     -1.527481  4 H  s          
    13      1.461444  1 C  dyy               28     -1.458817  2 C  dyy        
    32     -1.402016  3 H  s                 22     -1.370866  2 C  px         
    42      1.354359  5 H  s                  7     -1.346223  1 C  px         
 

 center of mass
 --------------
 x =  -0.00065717 y =  -0.00298485 z =  -0.00110364

 moments of inertia (a.u.)
 ------------------
          16.647162712637           4.754438856775         -14.926791633223
           4.754438856775          61.830747612737          -2.200799397961
         -14.926791633223          -2.200799397961          68.530477997327
 
     Multipole analysis of the density
     ---------------------------------
 
     L   x y z        total         alpha         beta         nuclear
     -   - - -        -----         -----         ----         -------
     0   0 0 0     -0.000000     -8.000000     -8.000000     16.000000
 
     1   1 0 0      0.001522      0.000761      0.000761      0.000000
     1   0 1 0      0.004375      0.002187      0.002187      0.000000
     1   0 0 1      0.001785      0.000892      0.000892      0.000000
 
     2   2 0 0     -8.945976    -23.805677    -23.805677     38.665377
     2   1 1 0     -0.279931      1.476563      1.476563     -3.233057
     2   1 0 1      0.649920     -4.750361     -4.750361     10.150641
     2   0 2 0     -9.123748    -10.291032    -10.291032     11.458315
     2   0 1 1      0.646020     -0.963663     -0.963663      2.573347
     2   0 0 2    -11.114620     -7.413076     -7.413076      3.711532
 

 Task  times  cpu:       24.8s     wall:       30.6s
 
 
                                NWChem Input Module
                                -------------------
 
 
                               Step3: hessian+freq I
                               ---------------------
 
 
                   NWChem Nuclear Hessian and Frequency Analysis
                   ---------------------------------------------
 
 
 
                              NWChem Analytic Hessian
                              -----------------------
 
 
                                 NWChem DFT Module
                                 -----------------
 
 
                               Step3: hessian+freq I
 
 


 Summary of "ao basis" -> "ao basis" (cartesian)
 ------------------------------------------------------------------------------
       Tag                 Description            Shells   Functions and Types
 ---------------- ------------------------------  ------  ---------------------
 H                       user specified              3        5   2s1p
 C                       user specified              6       15   3s2p1d


  Caching 1-el integrals 
 
            General Information
            -------------------
          SCF calculation type: DFT
          Wavefunction type:  closed shell.
          No. of atoms     :     6
          No. of electrons :    16
           Alpha electrons :     8
            Beta electrons :     8
          Charge           :     0
          Spin multiplicity:     1
          Use of symmetry is: off; symmetry adaption is: off
          Maximum number of iterations:  30
          This is a Direct SCF calculation.
          AO basis - number of functions:    50
                     number of shells:    24
          Convergence on energy requested:  1.00D-08
          Convergence on density requested:  1.00D-07
          Convergence on gradient requested:  1.00D-06
 
              XC Information
              --------------
                         PBE0 Method XC Functional
                     Hartree-Fock (Exact) Exchange  0.250          
          PerdewBurkeErnzerhof Exchange Functional  0.750          
            Perdew 1991 LDA Correlation Functional  1.000 local    
           PerdewBurkeErnz. Correlation Functional  1.000 non-local
 
             Grid Information
             ----------------
          Grid used for XC integration:  xfine     
          Radial quadrature: Mura-Knowles        
          Angular quadrature: Lebedev. 
          Tag              B.-S. Rad. Rad. Pts. Rad. Cut. Ang. Pts.
          ---              ---------- --------- --------- ---------
          C1                  0.70      100           9.0      1454
          C2                  0.70      100           9.0      1454
          H3                  0.35      100          10.0      1202
          H4                  0.35      100          10.0      1202
          H5                  0.35      100          10.0      1202
          H6                  0.35      100          10.0      1202
          Grid pruning is: on 
          Number of quadrature shells:   600
          Spatial weights used:  Erf1
 
          Convergence Information
          -----------------------
          Convergence aids based upon iterative change in 
          total energy or number of iterations. 
          Levelshifting, if invoked, occurs when the 
          HOMO/LUMO gap drops below (HL_TOL):  1.00D-02
          DIIS, if invoked, will attempt to extrapolate 
          using up to (NFOCK): 10 stored Fock matrices.

                    Damping( 0%)  Levelshifting(0.5)       DIIS
                  --------------- ------------------- ---------------
          dE  on:    start            ASAP                start   
          dE off:    2 iters         30 iters           150 iters 

 
      Screening Tolerance Information
      -------------------------------
          Density screening/tol_rho:  1.00D-11
          AO Gaussian exp screening on grid/accAOfunc:  18
          CD Gaussian exp screening on grid/accCDfunc:  20
          XC Gaussian exp screening on grid/accXCfunc:  20
          Schwarz screening/accCoul:  1.00D-12

      Dispersion Parameters
      ---------------------

             DFT-D3 Model   
          s8 scale factor  :        1.000000000000
          sr6 scale factor :        0.928000000000
          sr8 scale factor :        1.287000000000
              vdW contrib  :        1.000000000000


             DFT-D3 Model   
          s8 scale factor  :       -0.000495028939
          sr6 scale factor :

 Loading old vectors from job with title :

Step2: SP with DFT

   Time after variat. SCF:     54.9
   Time prior to 1st pass:     54.9
 Grid integrated density:      16.000000014712
 Requested integration accuracy:   0.10E-13

           Memory utilization after 1st SCF pass: 
           Heap Space remaining (MW):       96.85            96845020
          Stack Space remaining (MW):       96.85            96847212

   convergence    iter        energy       DeltaE   RMS-Dens  Diis-err    time
 ---------------- ----- ----------------- --------- --------- ---------  ------
 d= 0,ls=0.0,diis     1    -78.4904097254 -1.12D+02  7.08D-09  8.27D-14    58.0
 Grid integrated density:      16.000000014712
 Requested integration accuracy:   0.10E-13
 d= 0,ls=0.0,diis     2    -78.4904097254 -4.12D-13  2.60D-09  2.84D-14    61.2


         Total DFT energy =      -78.490409725404
      One electron energy =     -169.784602808259
           Coulomb energy =       70.345252517997
    Exchange-Corr. energy =      -12.164990840849
 Nuclear repulsion energy =       33.114426434647

    Dispersion correction =       -0.000495028939

 Numeric. integr. density =       16.000000014712

     Total iterative time =      6.3s


 
                       DFT Final Molecular Orbital Analysis
                       ------------------------------------
 
 Vector    1  Occ=2.000000D+00  E=-1.023901D+01
              MO Center=  2.9D-01, -2.8D-02,  7.5D-02, r^2= 3.9D-01
   Bfn.  Coefficient  Atom+Function         Bfn.  Coefficient  Atom+Function  
  ----- ------------  ---------------      ----- ------------  ---------------
    16      0.847495  2 C  s                  1      0.523310  1 C  s          
 
 Vector    2  Occ=2.000000D+00  E=-1.023804D+01
              MO Center= -2.9D-01,  2.1D-02, -7.8D-02, r^2= 3.9D-01
   Bfn.  Coefficient  Atom+Function         Bfn.  Coefficient  Atom+Function  
  ----- ------------  ---------------      ----- ------------  ---------------
     1      0.847503  1 C  s                 16     -0.523333  2 C  s          
 
 Vector    3  Occ=2.000000D+00  E=-7.795532D-01
              MO Center= -3.2D-03,  6.7D-03,  1.1D-03, r^2= 1.1D+00
   Bfn.  Coefficient  Atom+Function         Bfn.  Coefficient  Atom+Function  
  ----- ------------  ---------------      ----- ------------  ---------------
     2      0.314612  1 C  s                 17      0.313826  2 C  s          
     1     -0.165430  1 C  s                 16     -0.164881  2 C  s          
     3      0.144565  1 C  s                 18      0.144505  2 C  s          
    19     -0.115718  2 C  px                 4      0.115096  1 C  px         
    41      0.085130  5 H  s                 31      0.084367  3 H  s          
 
 Vector    4  Occ=2.000000D+00  E=-5.966579D-01
              MO Center=  6.4D-03, -7.0D-03, -3.0D-04, r^2= 2.1D+00
   Bfn.  Coefficient  Atom+Function         Bfn.  Coefficient  Atom+Function  
  ----- ------------  ---------------      ----- ------------  ---------------
     2      0.256351  1 C  s                 17     -0.257425  2 C  s          
     4     -0.190746  1 C  px                19     -0.191663  2 C  px         
    18     -0.157668  2 C  s                  3      0.155976  1 C  s          
    46     -0.143517  6 H  s                 31      0.139476  3 H  s          
    36      0.139157  4 H  s                 41     -0.136006  5 H  s          
 
 Vector    5  Occ=2.000000D+00  E=-4.791758D-01
              MO Center= -1.3D-02, -2.1D-02, -1.0D-02, r^2= 1.9D+00
   Bfn.  Coefficient  Atom+Function         Bfn.  Coefficient  Atom+Function  
  ----- ------------  ---------------      ----- ------------  ---------------
     5      0.376623  1 C  py                20      0.373615  2 C  py         
    36     -0.154972  4 H  s                 46     -0.148656  6 H  s          
    31      0.144163  3 H  s                 41      0.144506  5 H  s          
     6      0.120300  1 C  pz                21      0.108271  2 C  pz         
     8      0.078243  1 C  py                47     -0.077280  6 H  s          
 
 Vector    6  Occ=2.000000D+00  E=-4.301852D-01
              MO Center= -5.2D-03,  1.5D-02,  3.0D-03, r^2= 1.7D+00
   Bfn.  Coefficient  Atom+Function         Bfn.  Coefficient  Atom+Function  
  ----- ------------  ---------------      ----- ------------  ---------------
     4      0.466025  1 C  px                19     -0.465734  2 C  px         
    31     -0.130954  3 H  s                 46     -0.125149  6 H  s          
    21     -0.121500  2 C  pz                 6      0.110696  1 C  pz         
    41     -0.101956  5 H  s                 36     -0.096734  4 H  s          
     3     -0.082045  1 C  s                 18     -0.080284  2 C  s          
 
 Vector    7  Occ=2.000000D+00  E=-3.650725D-01
              MO Center=  1.8D-02,  1.6D-02,  9.9D-03, r^2= 2.3D+00
   Bfn.  Coefficient  Atom+Function         Bfn.  Coefficient  Atom+Function  
  ----- ------------  ---------------      ----- ------------  ---------------
    20     -0.357217  2 C  py                 5      0.349289  1 C  py         
    41     -0.196119  5 H  s                 36     -0.189567  4 H  s          
    31      0.176487  3 H  s                 46      0.174559  6 H  s          
    23     -0.172460  2 C  py                 8      0.170947  1 C  py         
    42     -0.123007  5 H  s                 21     -0.117295  2 C  pz         
 
 Vector    8  Occ=2.000000D+00  E=-2.827684D-01
              MO Center= -1.0D-03, -2.7D-03, -1.1D-03, r^2= 1.5D+00
   Bfn.  Coefficient  Atom+Function         Bfn.  Coefficient  Atom+Function  
  ----- ------------  ---------------      ----- ------------  ---------------
     6      0.438607  1 C  pz                21      0.438428  2 C  pz         
     9      0.166550  1 C  pz                24      0.166589  2 C  pz         
     5     -0.134174  1 C  py                20     -0.134088  2 C  py         
     4     -0.126363  1 C  px                19     -0.126315  2 C  px         
     8     -0.050952  1 C  py                23     -0.050946  2 C  py         
 
 Vector    9  Occ=0.000000D+00  E= 5.929953D-03
              MO Center= -6.5D-05, -4.1D-03, -1.3D-03, r^2= 2.3D+00
   Bfn.  Coefficient  Atom+Function         Bfn.  Coefficient  Atom+Function  
  ----- ------------  ---------------      ----- ------------  ---------------
     9      0.544850  1 C  pz                24     -0.544997  2 C  pz         
     6      0.448559  1 C  pz                21     -0.448656  2 C  pz         
     8     -0.166662  1 C  py                23      0.166694  2 C  py         
     7     -0.156963  1 C  px                22      0.157008  2 C  px         
     5     -0.137210  1 C  py                20      0.137224  2 C  py         
 
 Vector   10  Occ=0.000000D+00  E= 1.455478D-01
              MO Center=  1.9D-02, -1.9D-02, -2.0D-04, r^2= 6.0D+00
   Bfn.  Coefficient  Atom+Function         Bfn.  Coefficient  Atom+Function  
  ----- ------------  ---------------      ----- ------------  ---------------
     3      2.970630  1 C  s                 18     -2.965032  2 C  s          
    22      1.483373  2 C  px                 7      1.474370  1 C  px         
     9      0.406848  1 C  pz                24      0.372019  2 C  pz         
    32     -0.356247  3 H  s                 42      0.314114  5 H  s          
    47      0.286407  6 H  s                 37     -0.248141  4 H  s          
 
 Vector   11  Occ=0.000000D+00  E= 1.581334D-01
              MO Center= -7.3D-03,  6.0D-02,  1.6D-02, r^2= 3.9D+00
   Bfn.  Coefficient  Atom+Function         Bfn.  Coefficient  Atom+Function  
  ----- ------------  ---------------      ----- ------------  ---------------
     3      1.616401  1 C  s                 18      1.589871  2 C  s          
    42     -1.218216  5 H  s                 37     -1.116513  4 H  s          
    32     -1.094904  3 H  s                 47     -0.968066  6 H  s          
     7     -0.821952  1 C  px                22      0.816809  2 C  px         
    24      0.277209  2 C  pz                 9     -0.243442  1 C  pz         
 
 Vector   12  Occ=0.000000D+00  E= 1.947246D-01
              MO Center=  5.4D-03, -9.4D-02, -2.7D-02, r^2= 3.5D+00
   Bfn.  Coefficient  Atom+Function         Bfn.  Coefficient  Atom+Function  
  ----- ------------  ---------------      ----- ------------  ---------------
    47      0.755705  6 H  s                 37      0.706388  4 H  s          
    32     -0.592627  3 H  s                 42     -0.589868  5 H  s          
    20      0.412447  2 C  py                 5      0.399737  1 C  py         
    23      0.295926  2 C  py                 8      0.259961  1 C  py         
     3     -0.256735  1 C  s                 22     -0.163785  2 C  px         
 
 Vector   13  Occ=0.000000D+00  E= 2.649222D-01
              MO Center= -3.3D-01,  5.0D-03, -9.5D-02, r^2= 4.9D+00
   Bfn.  Coefficient  Atom+Function         Bfn.  Coefficient  Atom+Function  
  ----- ------------  ---------------      ----- ------------  ---------------
     7      1.661390  1 C  px                 3     -0.900588  1 C  s          
    32      0.810135  3 H  s                 18     -0.699539  2 C  s          
    22     -0.576272  2 C  px                37      0.550019  4 H  s          
     8     -0.506863  1 C  py                19      0.419082  2 C  px         
    42     -0.383407  5 H  s                 23      0.374603  2 C  py         
 
 Vector   14  Occ=0.000000D+00  E= 2.670193D-01
              MO Center=  3.2D-01, -2.7D-02,  8.3D-02, r^2= 4.7D+00
   Bfn.  Coefficient  Atom+Function         Bfn.  Coefficient  Atom+Function  
  ----- ------------  ---------------      ----- ------------  ---------------
    22      1.970869  2 C  px                42     -1.478223  5 H  s          
    32      1.363959  3 H  s                 47     -1.348793  6 H  s          
     7      1.166429  1 C  px                37      1.129817  4 H  s          
    18      0.649286  2 C  s                 24      0.588602  2 C  pz         
     8     -0.324987  1 C  py                 4      0.282897  1 C  px         
 
 Vector   15  Occ=0.000000D+00  E= 2.883906D-01
              MO Center= -1.0D-01,  2.5D-02, -2.1D-02, r^2= 3.8D+00
   Bfn.  Coefficient  Atom+Function         Bfn.  Coefficient  Atom+Function  
  ----- ------------  ---------------      ----- ------------  ---------------
     8      1.758168  1 C  py                37      1.300598  4 H  s          
    32     -1.102456  3 H  s                 42     -0.894318  5 H  s          
    23      0.850453  2 C  py                47      0.785281  6 H  s          
     9      0.575383  1 C  pz                 5     -0.291584  1 C  py         
[...]
  Mode   [cm**-1]  || [atomic units] [(debye/angs)**2] [(KM/mol)] [arbitrary]
 ------ ---------- || -------------- ----------------- ---------- -----------
    1       -2.266 ||    0.000000           0.000         0.000       0.000
    2       -1.173 ||    0.000000           0.000         0.000       0.000
    3       -0.581 ||    0.000000           0.000         0.000       0.000
    4       -0.197 ||    0.000000           0.000         0.000       0.000
    5        1.326 ||    0.000000           0.000         0.000       0.000
    6        4.128 ||    0.000000           0.000         0.000       0.000
    7      814.555 ||    0.001644           0.038         1.603       1.937
    8      967.293 ||    0.000000           0.000         0.000       0.000
    9      973.261 ||    0.111425           2.571       108.622     131.271
   10     1055.608 ||    0.000000           0.000         0.000       0.000
   11     1216.104 ||    0.000000           0.000         0.000       0.000
   12     1376.026 ||    0.000000           0.000         0.000       0.000
   13     1448.547 ||    0.014111           0.326        13.757      16.625
   14     1693.455 ||    0.000000           0.000         0.000       0.000
   15     3155.249 ||    0.009599           0.221         9.358      11.309
   16     3175.939 ||    0.000000           0.000         0.000       0.000
   17     3240.023 ||    0.000000           0.000         0.000       0.000
   18     3271.170 ||    0.016007           0.369        15.605      18.858
 ----------------------------------------------------------------------------



 
 
        Vibrational analysis via the FX method 
  --- with translations and rotations projected out ---
  --- via the Eckart algorithm                      ---
 Projected Nuclear Hessian trans-rot subspace norm:5.4082D-33
                         (should be close to zero!) 

          --------------------------------------------------------
          MASS-WEIGHTED PROJECTED HESSIAN (Hartree/Bohr/Bohr/Kamu)
          --------------------------------------------------------


               1            2            3            4            5            6            7            8            9           10
   ----- ----- ----- ----- -----
    1    6.81573D+01
    2   -4.51763D+00  4.99359D+01
    3    1.56392D+01  1.11972D+01  1.70042D+01
    4   -4.56942D+01  2.86185D+00 -1.11596D+01  6.81573D+01
    5    2.86186D+00 -8.69120D+00 -6.35374D-01 -4.51763D+00  4.99359D+01
    6   -1.11596D+01 -6.35376D-01 -7.32778D+00  1.56392D+01  1.11972D+01  1.70042D+01
    7   -3.63657D+01  3.56278D+01  3.44060D+00 -3.41325D+00  8.08158D+00  1.03162D+00  1.31736D+02
    8    3.68026D+01 -7.65597D+01 -9.60947D+00 -5.60057D-01  4.30769D-01 -5.14813D-01 -1.37445D+02  2.72582D+02
    9    3.79993D+00 -9.94792D+00 -1.24290D+01 -1.61163D+00  1.97472D+00  1.72613D+00 -1.09516D+01  3.64940D+01  3.18268D+01
   10   -3.45082D+01 -3.05901D+01 -1.62786D+01 -3.22453D+00 -7.40566D+00 -3.65115D+00  8.77633D+00  1.24618D+01  5.55225D+00  1.24721D+02
   11   -3.17649D+01 -6.75383D+01 -2.66034D+01  1.23594D+00  1.34712D+00  2.82851D-01 -1.28289D+01 -1.33217D+01 -8.60697D+00  1.17082D+02
   12   -1.66379D+01 -2.62649D+01 -2.33078D+01 -1.00791D+00 -2.20667D+00  6.21088D-01 -2.18350D+00 -1.32116D+00  1.70146D+00  6.48806D+01
   13   -3.22457D+00 -7.40576D+00 -3.65120D+00 -3.45081D+01 -3.05901D+01 -1.62786D+01  3.85928D-01 -4.84911D-01  2.40395D+00 -3.68142D+00
   14    1.23605D+00  1.34712D+00  2.82887D-01 -3.17648D+01 -6.75384D+01 -2.66034D+01 -9.60456D-01  9.07513D-01  2.59271D+00  2.04898D+00
   15   -1.00789D+00 -2.20670D+00  6.21079D-01 -1.66379D+01 -2.62650D+01 -2.33078D+01  2.25848D+00  2.72973D+00 -6.98792D+00 -4.06691D+00
   16   -3.41321D+00  8.08154D+00  1.03161D+00 -3.63657D+01  3.56277D+01  3.44053D+00 -3.63622D+00  4.08877D-01 -4.55557D+00  3.85785D-01
   17   -5.60234D-01  4.30742D-01 -5.14872D-01  3.68024D+01 -7.65596D+01 -9.60944D+00  4.09732D-01  2.52472D+00 -2.96721D+00 -4.83925D-01
   18   -1.61167D+00  1.97471D+00  1.72612D+00  3.79983D+00 -9.94785D+00 -1.24290D+01 -4.55529D+00 -2.96748D+00  1.03912D+01  2.40420D+00


              11           12           13           14           15           16           17           18
   ----- ----- ----- ----- -----
   11    2.38511D+02
   12    9.93981D+01  7.29136D+01
   13    2.05026D+00 -4.06653D+00  1.24721D+02
   14    2.30505D+00 -2.56202D+00  1.17082D+02  2.38511D+02
   15   -2.56163D+00  1.06560D+01  6.48806D+01  9.93983D+01  7.29138D+01
   16   -9.59574D-01  2.25871D+00  8.77642D+00 -1.28275D+01 -2.18304D+00  1.31736D+02
   17    9.07056D-01  2.72986D+00  1.24621D+01 -1.33217D+01 -1.32106D+00 -1.37446D+02  2.72582D+02
   18    2.59280D+00 -6.98781D+00  5.55239D+00 -8.60662D+00  1.70163D+00 -1.09518D+01  3.64936D+01  3.18266D+01

 center of mass
 --------------
 x =   0.00257897 y =   0.01171232 z =   0.00433013

 moments of inertia (a.u.)
 ------------------
          16.680126692196           3.919779138824         -14.983260584153
           3.919779138824          61.230110845849          -2.425562062016
         -14.983260584153          -2.425562062016          67.793512937136

 Rotational Constants
 --------------------
 A=   4.851680 cm-1  (  6.980329 K)
 B=   0.995970 cm-1  (  1.432947 K)
 C=   0.826337 cm-1  (  1.188888 K)


 Temperature                      =   298.15K
 frequency scaling parameter      =   1.0000

 Zero-Point correction to Energy  =   31.989 kcal/mol  (  0.050978 au)
 Thermal correction to Energy     =   33.903 kcal/mol  (  0.054028 au)
 Thermal correction to Enthalpy   =   34.495 kcal/mol  (  0.054971 au)

 Total Entropy                    =   55.104 cal/mol-K
   - Translational                =   35.911 cal/mol-K (mol. weight =  28.0313)
   - Rotational                   =   18.633 cal/mol-K (symmetry #  =        1)
   - Vibrational                  =    0.560 cal/mol-K

 Cv (constant volume heat capacity) =    8.164 cal/mol-K
   - Translational                  =    2.979 cal/mol-K
   - Rotational                     =    2.979 cal/mol-K
   - Vibrational                    =    2.205 cal/mol-K



          -------------------------------------------------
          NORMAL MODE EIGENVECTORS IN CARTESIAN COORDINATES
          -------------------------------------------------
             (Projected Frequencies expressed in cm-1)

                    1           2           3           4           5           6
 
 P.Frequency       -0.00        0.00        0.00        0.00        0.00        0.00
 
           1     0.00210    -0.02506     0.02985     0.02525     0.18809     0.00089
           2     0.12658     0.00340    -0.00070     0.20308    -0.01901    -0.01377
           3     0.00727     0.24099     0.02762    -0.01097    -0.00581     0.02956
           4     0.01221     0.03332    -0.02765     0.00167     0.18817     0.01015
           5     0.22793    -0.00915     0.00449    -0.07475    -0.00353     0.01313
           6    -0.00517     0.01971     0.24381     0.00759    -0.00225     0.00169
           7    -0.06915    -0.01416     0.00869     0.22116     0.17329     0.11587
           8     0.08260    -0.01108    -0.00002     0.32274    -0.02934     0.11428
           9     0.01129     0.40330    -0.07680    -0.01221     0.00423    -0.41541
          10     0.06467    -0.08601     0.10032    -0.15045     0.20281    -0.12204
          11     0.08365     0.02864    -0.00583     0.32167    -0.02195    -0.16490
          12     0.01391     0.26845    -0.05336    -0.02563    -0.01890     0.49844
          13    -0.05036     0.09427    -0.09813     0.17737     0.17345     0.13308
          14     0.27085    -0.03439     0.00961    -0.19334    -0.00059     0.16425
          15    -0.01182    -0.00774     0.32478     0.02226     0.01084    -0.46720
          16     0.08346     0.02242    -0.00649    -0.19425     0.20297    -0.10484
          17     0.27191     0.00533     0.00380    -0.19441     0.00680    -0.11492
          18    -0.00920    -0.14259     0.34822     0.00884    -0.01229     0.44666

                    7           8           9          10          11          12
 
 P.Frequency      814.54      967.29      973.26     1055.61     1216.10     1376.03
 
           1     0.00051    -0.03284     0.02056    -0.00000     0.00164    -0.07777
           2    -0.03722    -0.03487     0.02183    -0.00000    -0.11886     0.00521
           3    -0.01124     0.11399    -0.07137     0.00000    -0.03589    -0.02081
           4     0.00051     0.03284     0.02056    -0.00000    -0.00164     0.07776
           5    -0.03722     0.03487     0.02183    -0.00000     0.11886    -0.00521
           6    -0.01124    -0.11399    -0.07137     0.00000     0.03589     0.02081
           7     0.41211     0.10525    -0.12240     0.13228     0.36303    -0.40021
           8     0.19376     0.11175    -0.12995     0.14045     0.08576    -0.15162
           9     0.17799    -0.36534     0.42487    -0.45917     0.13082    -0.16167
          10    -0.41822     0.10525    -0.12240    -0.13228    -0.36608    -0.40513
          11     0.24939     0.11175    -0.12996    -0.14045     0.13462     0.20556
          12    -0.04420    -0.36534     0.42487     0.45916    -0.06429    -0.05383
          13    -0.41822    -0.10525    -0.12240    -0.13228     0.36607     0.40518
          14     0.24939    -0.11175    -0.12996    -0.14045    -0.13461    -0.20561
          15    -0.04421     0.36534     0.42487     0.45916     0.06429     0.05384
          16     0.41211    -0.10525    -0.12240     0.13228    -0.36303     0.40025
          17     0.19376    -0.11175    -0.12995     0.14045    -0.08577     0.15165
          18     0.17799     0.36534     0.42487    -0.45917    -0.13082     0.16169

                   13          14          15          16          17          18
 
 P.Frequency     1448.56     1693.45     3155.24     3175.94     3240.02     3271.17
 
           1    -0.06292    -0.17325    -0.04011     0.05155    -0.00087     0.00088
           2     0.00421     0.01161     0.00269    -0.00345     0.06322    -0.06407
           3    -0.01684    -0.04636    -0.01073     0.01379     0.01909    -0.01934
           4    -0.06293     0.17325    -0.04010    -0.05155     0.00087     0.00088
           5     0.00422    -0.01161     0.00269     0.00345    -0.06322    -0.06407
           6    -0.01684     0.04636    -0.01073    -0.01380    -0.01909    -0.01934
           7     0.37113     0.10748     0.24434    -0.24252     0.24684    -0.24641
           8     0.23116     0.19041    -0.41808     0.41117    -0.39822     0.39762
           9     0.17762     0.08921    -0.05749     0.05590    -0.05069     0.05063
          10     0.37820     0.11294     0.23324    -0.23161    -0.23631     0.23589
          11    -0.28135    -0.20518     0.38607    -0.37940    -0.36587     0.36531
          12     0.02289    -0.03022     0.18528    -0.18277    -0.17999     0.17970
          13     0.37815    -0.11294     0.23321     0.23165     0.23630     0.23589
          14    -0.28132     0.20518     0.38602     0.37946     0.36586     0.36530
          15     0.02289     0.03022     0.18526     0.18280     0.17998     0.17969
          16     0.37107    -0.10748     0.24430     0.24256    -0.24685    -0.24641
          17     0.23113    -0.19041    -0.41800    -0.41123     0.39824     0.39762
          18     0.17760    -0.08920    -0.05748    -0.05591     0.05070     0.05063



 ----------------------------------------------------------------------------
 Normal Eigenvalue ||    Projected Derivative Dipole Moments (debye/angs)
  Mode   [cm**-1]  ||      [d/dqX]             [d/dqY]           [d/dqZ]
 ------ ---------- || ------------------ ------------------ -----------------
    1       -0.000 ||       0.000              -0.000            -0.000
    2        0.000 ||       0.000              -0.000             0.000
    3        0.000 ||      -0.000              -0.000            -0.000
    4        0.000 ||      -0.000               0.000            -0.000
    5        0.000 ||      -0.000              -0.000            -0.000
    6        0.000 ||       0.000               0.000             0.000
    7      814.542 ||      -0.003               0.186             0.056
    8      967.294 ||      -0.000               0.000            -0.000
    9      973.261 ||      -0.426              -0.452             1.478
   10     1055.608 ||      -0.000              -0.000             0.000
   11     1216.099 ||      -0.000               0.000            -0.000
   12     1376.026 ||       0.000              -0.000             0.000
   13     1448.559 ||       0.550              -0.037             0.147
   14     1693.455 ||      -0.000              -0.000            -0.000
   15     3155.244 ||       0.454              -0.030             0.121
   16     3175.939 ||       0.000               0.000             0.000
   17     3240.023 ||       0.000              -0.000             0.000
   18     3271.173 ||       0.008              -0.582            -0.176
 ----------------------------------------------------------------------------



  
  
 ----------------------------------------------------------------------------
 Normal Eigenvalue ||           Projected Infra Red Intensities
  Mode   [cm**-1]  || [atomic units] [(debye/angs)**2] [(KM/mol)] [arbitrary]
 ------ ---------- || -------------- ----------------- ---------- -----------
    1       -0.000 ||    0.000000           0.000         0.000       0.000
    2        0.000 ||    0.000000           0.000         0.000       0.000
    3        0.000 ||    0.000000           0.000         0.000       0.000
    4        0.000 ||    0.000000           0.000         0.000       0.000
    5        0.000 ||    0.000000           0.000         0.000       0.000
    6        0.000 ||    0.000000           0.000         0.000       0.000
    7      814.542 ||    0.001644           0.038         1.603       1.937
    8      967.294 ||    0.000000           0.000         0.000       0.000
    9      973.261 ||    0.111425           2.571       108.622     131.271
   10     1055.608 ||    0.000000           0.000         0.000       0.000
   11     1216.099 ||    0.000000           0.000         0.000       0.000
   12     1376.026 ||    0.000000           0.000         0.000       0.000
   13     1448.559 ||    0.014111           0.326        13.756      16.625
   14     1693.455 ||    0.000000           0.000         0.000       0.000
   15     3155.244 ||    0.009599           0.221         9.358      11.309
   16     3175.939 ||    0.000000           0.000         0.000       0.000
   17     3240.023 ||    0.000000           0.000         0.000       0.000
   18     3271.173 ||    0.016007           0.369        15.605      18.859
 ----------------------------------------------------------------------------



 vib:animation  F

 Task  times  cpu:      183.8s     wall:      185.5s
 
 
                                NWChem Input Module
                                -------------------
 
 
 Summary of allocated global arrays
-----------------------------------
  No active global arrays



                         GA Statistics for process    0
                         ------------------------------

       create   destroy   get      put      acc     scatter   gather  read&inc
calls: 2848     2848     2.59e+06 9.82e+04 5.76e+06  760        0     2.00e+04 
number of processes/call 2.07e+00 5.35e+00 2.98e+00 0.00e+00 0.00e+00
bytes total:             2.06e+09 6.60e+07 4.37e+09 2.69e+03 0.00e+00 1.60e+05
bytes remote:            0.00e+00 0.00e+00 0.00e+00 0.00e+00 0.00e+00 0.00e+00
Max memory consumed for GA by this process: 3181224 bytes
 
MA_summarize_allocated_blocks: starting scan ...
MA_summarize_allocated_blocks: scan completed: 0 heap blocks, 0 stack blocks
MA usage statistics:

	allocation statistics:
					      heap	     stack
					      ----	     -----
	current number of blocks	         0	         0
	maximum number of blocks	        25	        60
	current total bytes		         0	         0
	maximum total bytes		     80104	  83021704
	maximum total K-bytes		        81	     83022
	maximum total M-bytes		         1	        84
 
 
                                     CITATION
                                     --------
                Please cite the following reference when publishing
                           results obtained with NWChem:
 
          E. Apr, E. J. Bylaska, W. A. de Jong, N. Govind, K. Kowalski,
       T. P. Straatsma, M. Valiev, H. J. J. van Dam, Y. Alexeev, J. Anchell,
       V. Anisimov, F. W. Aquino, R. Atta-Fynn, J. Autschbach, N. P. Bauman,
     J. C. Becca, D. E. Bernholdt, K. Bhaskaran-Nair, S. Bogatko, P. Borowski,
        J. Boschen, J. Brabec, A. Bruner, E. Caut, Y. Chen, G. N. Chuev,
      C. J. Cramer, J. Daily, M. J. O. Deegan, T. H. Dunning Jr., M. Dupuis,
   K. G. Dyall, G. I. Fann, S. A. Fischer, A. Fonari, H. Frchtl, L. Gagliardi,
      J. Garza, N. Gawande, S. Ghosh, K. Glaesemann, A. W. Gtz, J. Hammond,
       V. Helms, E. D. Hermes, K. Hirao, S. Hirata, M. Jacquelin, L. Jensen,
   B. G. Johnson, H. Jnsson, R. A. Kendall, M. Klemm, R. Kobayashi, V. Konkov,
      S. Krishnamoorthy, M. Krishnan, Z. Lin, R. D. Lins, R. J. Littlefield,
      A. J. Logsdail, K. Lopata, W. Ma, A. V. Marenich, J. Martin del Campo,
   D. Mejia-Rodriguez, J. E. Moore, J. M. Mullin, T. Nakajima, D. R. Nascimento,
    J. A. Nichols, P. J. Nichols, J. Nieplocha, A. Otero-de-la-Roza, B. Palmer,
    A. Panyala, T. Pirojsirikul, B. Peng, R. Peverati, J. Pittner, L. Pollack,
   R. M. Richard, P. Sadayappan, G. C. Schatz, W. A. Shelton, D. W. Silverstein,
   D. M. A. Smith, T. A. Soares, D. Song, M. Swart, H. L. Taylor, G. S. Thomas,
            V. Tipparaju, D. G. Truhlar, K. Tsemekhman, T. Van Voorhis,
     . Vzquez-Mayagoitia, P. Verma, O. Villa, A. Vishnu, K. D. Vogiatzis,
        D. Wang, J. H. Weare, M. J. Williamson, T. L. Windus, K. Woliski,
        A. T. Wong, Q. Wu, C. Yang, Q. Yu, M. Zacharias, Z. Zhang, Y. Zhao,
                                and R. J. Harrison
                        "NWChem: Past, present, and future
                         J. Chem. Phys. 152, 184102 (2020)
                               doi:10.1063/5.0004997
 
                                      AUTHORS
                                      -------
     E. Apra, E. J. Bylaska, N. Govind, K. Kowalski, M. Valiev, W. A. de Jong,
      T. P. Straatsma, H. J. J. van Dam, D. Wang, T. L. Windus, N. P. Bauman,
       A. Panyala, J. Hammond, J. Autschbach, K. Bhaskaran-Nair, J. Brabec,
    K. Lopata, S. A. Fischer, S. Krishnamoorthy, M. Jacquelin, W. Ma, M. Klemm,
       O. Villa, Y. Chen, V. Anisimov, F. Aquino, S. Hirata, M. T. Hackler,
           Eric Hermes, L. Jensen, J. E. Moore, J. C. Becca, V. Konjkov,
            D. Mejia-Rodriguez, T. Risthaus, M. Malagoli, A. Marenich,
   A. Otero-de-la-Roza, J. Mullin, P. Nichols, R. Peverati, J. Pittner, Y. Zhao,
        P.-D. Fan, A. Fonari, M. J. Williamson, R. J. Harrison, J. R. Rehr,
      M. Dupuis, D. Silverstein, D. M. A. Smith, J. Nieplocha, V. Tipparaju,
      M. Krishnan, B. E. Van Kuiken, A. Vazquez-Mayagoitia, M. Swart, Q. Wu,
   T. Van Voorhis, A. A. Auer, M. Nooijen, L. D. Crosby, E. Brown, G. Cisneros,
     G. I. Fann, H. Fruchtl, J. Garza, K. Hirao, R. A. Kendall, J. A. Nichols,
       K. Tsemekhman, K. Wolinski, J. Anchell, D. E. Bernholdt, P. Borowski,
       T. Clark, D. Clerc, H. Dachsel, M. J. O. Deegan, K. Dyall, D. Elwood,
      E. Glendening, M. Gutowski, A. C. Hess, J. Jaffe, B. G. Johnson, J. Ju,
        R. Kobayashi, R. Kutteh, Z. Lin, R. Littlefield, X. Long, B. Meng,
      T. Nakajima, S. Niu, L. Pollack, M. Rosing, K. Glaesemann, G. Sandrone,
      M. Stave, H. Taylor, G. Thomas, J. H. van Lenthe, A. T. Wong, Z. Zhang.

 Total times  cpu:      491.9s     wall:      529.9s
