
                                 *****************
                                 * O   R   C   A *
                                 *****************

           --- An Ab Initio, DFT and Semiempirical electronic structure package ---

                  #######################################################
                  #                        -***-                        #
                  #          Department of theory and spectroscopy      #
                  #               Directorship: Frank Neese             #
                  #        Max Planck Institute fuer Kohlenforschung    #
                  #                Kaiser Wilhelm Platz 1               #
                  #                 D-45470 Muelheim/Ruhr               #
                  #                      Germany                        #
                  #                                                     #
                  #                  All rights reserved                #
                  #                        -***-                        #
                  #######################################################


                         Program Version 4.2.1 -  RELEASE  -


 With contributions from (in alphabetic order):
   Daniel Aravena         : Magnetic Suceptibility
   Michael Atanasov       : Ab Initio Ligand Field Theory (pilot matlab implementation)
   Alexander A. Auer      : GIAO ZORA, VPT2
   Ute Becker             : Parallelization
   Giovanni Bistoni       : ED, misc. LED, open-shell LED, HFLD
   Martin Brehm           : Molecular dynamics
   Dmytro Bykov           : SCF Hessian
   Vijay G. Chilkuri      : MRCI spin determinant printing, contributions to CSF-ICE
   Dipayan Datta          : RHF DLPNO-CCSD density
   Achintya Kumar Dutta   : EOM-CC, STEOM-CC
   Dmitry Ganyushin       : Spin-Orbit,Spin-Spin,Magnetic field MRCI
   Miquel Garcia          : C-PCM Hessian, Gaussian charge scheme
   Yang Guo               : DLPNO-NEVPT2, CIM, IAO-localization
   Andreas Hansen         : Spin unrestricted coupled pair/coupled cluster methods
   Benjamin Helmich-Paris : CASSCF linear response (MC-RPA)
   Lee Huntington         : MR-EOM, pCC
   Robert Izsak           : Overlap fitted RIJCOSX, COSX-SCS-MP3, EOM
   Christian Kollmar      : KDIIS, OOCD, Brueckner-CCSD(T), CCSD density
   Simone Kossmann        : Meta GGA functionals, TD-DFT gradient, OOMP2, MP2 Hessian
   Martin Krupicka        : AUTO-CI
   Lucas Lang             : DCDCAS
   Dagmar Lenk            : GEPOL surface, SMD
   Dimitrios Liakos       : Extrapolation schemes; Compound Job, initial MDCI parallelization
   Dimitrios Manganas     : Further ROCIS development; embedding schemes
   Dimitrios Pantazis     : SARC Basis sets
   Taras Petrenko         : DFT Hessian,TD-DFT gradient, ASA, ECA, R-Raman, ABS, FL, XAS/XES, NRVS
   Peter Pinski           : DLPNO-MP2, DLPNO-MP2 Gradient
   Christoph Reimann      : Effective Core Potentials
   Marius Retegan         : Local ZFS, SOC
   Christoph Riplinger    : Optimizer, TS searches, QM/MM, DLPNO-CCSD(T), (RO)-DLPNO pert. Triples
   Tobias Risthaus        : Range-separated hybrids, TD-DFT gradient, RPA, STAB
   Michael Roemelt        : Original ROCIS implementation
   Masaaki Saitow         : Open-shell DLPNO-CCSD energy and density
   Barbara Sandhoefer     : DKH picture change effects
   Avijit Sen             : IP-ROCIS
   Kantharuban Sivalingam : CASSCF convergence, NEVPT2, FIC-MRCI
   Bernardo de Souza      : ESD, SOC TD-DFT
   Georgi Stoychev        : AutoAux, RI-MP2 NMR
   Willem Van den Heuvel  : Paramagnetic NMR
   Boris Wezisla          : Elementary symmetry handling
   Frank Wennmohs         : Technical directorship


 We gratefully acknowledge several colleagues who have allowed us to
 interface, adapt or use parts of their codes:
   Stefan Grimme, W. Hujo, H. Kruse,             : VdW corrections, initial TS optimization,
                  C. Bannwarth                     DFT functionals, gCP, sTDA/sTD-DF
   Ed Valeev, F. Pavosevic, A. Kumar             : LibInt (2-el integral package), F12 methods
   Garnet Chan, S. Sharma, J. Yang, R. Olivares  : DMRG
   Ulf Ekstrom                                   : XCFun DFT Library
   Mihaly Kallay                                 : mrcc  (arbitrary order and MRCC methods)
   Andreas Klamt, Michael Diedenhofen            : otool_cosmo (COSMO solvation model)
   Jiri Pittner, Ondrej Demel                    : Mk-CCSD
   Frank Weinhold                                : gennbo (NPA and NBO analysis)
   Christopher J. Cramer and Donald G. Truhlar   : smd solvation model
   Lars Goerigk                                  : TD-DFT with DH, B97 family of functionals
   V. Asgeirsson, H. Jonsson                     : NEB implementation
   FAccTs GmbH                                   : IRC, NEB, NEB-TS, Multilevel, MM, QM/MM, CI optimization
   S Lehtola, MJT Oliveira, MAL Marques          : LibXC Library


 Your calculation uses the libint2 library for the computation of 2-el integrals
 For citations please refer to: http://libint.valeyev.net

 Your ORCA version has been built with support for libXC version: 4.2.3
 For citations please refer to: https://tddft.org/programs/libxc/

 This ORCA versions uses:
   CBLAS   interface :  Fast vector & matrix operations
   LAPACKE interface :  Fast linear algebra routines
   SCALAPACK package :  Parallel linear algebra routines


----- Orbital basis set information -----
Your calculation utilizes the basis: def2-TZVP
   F. Weigend and R. Ahlrichs, Phys. Chem. Chem. Phys. 7, 3297 (2005).

================================================================================
                                        WARNINGS
                       Please study these warnings very carefully!
================================================================================


INFO   : the flag for use of LIBINT has been found!

================================================================================
                                       INPUT FILE
================================================================================
NAME = orca.inp
|  1> ! HF def2-TZVP
|  2> 
|  3> %pal
|  4> nprocs 1    # parallel execution
|  5> end
|  6> 
|  7> * xyz 0 1
|  8> C  0.0  0.0  0.0
|  9> O  0.0  0.0  1.13
| 10> *
| 11> 
| 12>                          ****END OF INPUT****
================================================================================

                       ****************************
                       * Single Point Calculation *
                       ****************************

---------------------------------
CARTESIAN COORDINATES (ANGSTROEM)
---------------------------------
  C      0.000000    0.000000    0.000000
  O      0.000000    0.000000    1.130000

----------------------------
CARTESIAN COORDINATES (A.U.)
----------------------------
  NO LB      ZA    FRAG     MASS         X           Y           Z
   0 C     6.0000    0    12.011    0.000000    0.000000    0.000000
   1 O     8.0000    0    15.999    0.000000    0.000000    2.135391

--------------------------------
INTERNAL COORDINATES (ANGSTROEM)
--------------------------------
 C      0   0   0     0.000000000000     0.00000000     0.00000000
 O      1   0   0     1.130000000000     0.00000000     0.00000000

---------------------------
INTERNAL COORDINATES (A.U.)
---------------------------
 C      0   0   0     0.000000000000     0.00000000     0.00000000
 O      1   0   0     2.135390531331     0.00000000     0.00000000

---------------------
BASIS SET INFORMATION
---------------------
There are 2 groups of distinct atoms

 Group   1 Type C   : 11s6p2d1f contracted to 5s3p2d1f pattern {62111/411/11/1}
 Group   2 Type O   : 11s6p2d1f contracted to 5s3p2d1f pattern {62111/411/11/1}

Atom   0C    basis set group =>   1
Atom   1O    basis set group =>   2
------------------------------------------------------------------------------
                           ORCA GTO INTEGRAL CALCULATION
------------------------------------------------------------------------------

                         BASIS SET STATISTICS AND STARTUP INFO

 # of primitive gaussian shells          ...   40
 # of primitive gaussian functions       ...   92
 # of contracted shells                  ...   22
 # of contracted basis functions         ...   62
 Highest angular momentum                ...    3
 Maximum contraction depth               ...    6
 Integral package used                   ... LIBINT
 Integral threshhold            Thresh   ...  1.000e-10
 Primitive cut-off              TCut     ...  1.000e-11


------------------------------ INTEGRAL EVALUATION ----------------------------


 * One electron integrals 
 Pre-screening matrix                    ... done
 Shell pair data                         ... done (   0.000 sec)

-------------------------------------------------------------------------------
                                 ORCA SCF
-------------------------------------------------------------------------------

------------
SCF SETTINGS
------------
Hamiltonian:
 Ab initio Hamiltonian  Method          .... Hartree-Fock(GTOs)


General Settings:
 Integral files         IntName         .... orca
 Hartree-Fock type      HFTyp           .... RHF
 Total Charge           Charge          ....    0
 Multiplicity           Mult            ....    1
 Number of Electrons    NEL             ....   14
 Basis Dimension        Dim             ....   62
 Nuclear Repulsion      ENuc            ....     22.4783238924 Eh

Convergence Acceleration:
 DIIS                   CNVDIIS         .... on
   Start iteration      DIISMaxIt       ....    12
   Startup error        DIISStart       ....  0.200000
   # of expansion vecs  DIISMaxEq       ....     5
   Bias factor          DIISBfac        ....   1.050
   Max. coefficient     DIISMaxC        ....  10.000
 Newton-Raphson         CNVNR           .... off
 SOSCF                  CNVSOSCF        .... on
   Start iteration      SOSCFMaxIt      ....   150
   Startup grad/error   SOSCFStart      ....  0.003300
 Level Shifting         CNVShift        .... on
   Level shift para.    LevelShift      ....    0.2500
   Turn off err/grad.   ShiftErr        ....    0.0010
 Zerner damping         CNVZerner       .... off
 Static damping         CNVDamp         .... on
   Fraction old density DampFac         ....    0.7000
   Max. Damping (<1)    DampMax         ....    0.9800
   Min. Damping (>=0)   DampMin         ....    0.0000
   Turn off err/grad.   DampErr         ....    0.1000
 Fernandez-Rico         CNVRico         .... off

SCF Procedure:
 Maximum # iterations   MaxIter         ....   125
 SCF integral mode      SCFMode         .... Direct
   Integral package                     .... LIBINT
 Reset frequency        DirectResetFreq ....    20
 Integral Threshold     Thresh          ....  1.000e-10 Eh
 Primitive CutOff       TCut            ....  1.000e-11 Eh

Convergence Tolerance:
 Convergence Check Mode ConvCheckMode   .... Total+1el-Energy
 Convergence forced     ConvForced      .... 0
 Energy Change          TolE            ....  1.000e-06 Eh
 1-El. energy change                    ....  1.000e-03 Eh
 Orbital Gradient       TolG            ....  5.000e-05
 Orbital Rotation angle TolX            ....  5.000e-05
 DIIS Error             TolErr          ....  1.000e-06


Diagonalization of the overlap matrix:
Smallest eigenvalue                        ... 1.202e-03
Time for diagonalization                   ...    0.013 sec
Threshold for overlap eigenvalues          ... 1.000e-08
Number of eigenvalues below threshold      ... 0
Time for construction of square roots      ...    0.003 sec
Total time needed                          ...    0.016 sec

-------------------
DFT GRID GENERATION
-------------------

General Integration Accuracy     IntAcc      ...  4.340
Radial Grid Type                 RadialGrid  ... Gauss-Chebyshev
Angular Grid (max. acc.)         AngularGrid ... Lebedev-110
Angular grid pruning method      GridPruning ... 3 (G Style)
Weight generation scheme         WeightScheme... Becke
Basis function cutoff            BFCut       ...    1.0000e-10
Integration weight cutoff        WCut        ...    1.0000e-14
Grids for H and He will be reduced by one unit

# of grid points (after initial pruning)     ...   3372 (   0.0 sec)
# of grid points (after weights+screening)   ...   3345 (   0.0 sec)
nearest neighbour list constructed           ...    0.0 sec
Grid point re-assignment to atoms done       ...    0.0 sec
Grid point division into batches done        ...    0.0 sec
Reduced shell lists constructed in    0.0 sec

Total number of grid points                  ...     3345
Total number of batches                      ...       54
Average number of points per batch           ...       61
Average number of grid points per atom       ...     1672
Average number of shells per batch           ...    18.20 (82.73%)
Average number of basis functions per batch  ...    53.47 (86.25%)
Average number of large shells per batch     ...    17.13 (94.11%)
Average number of large basis fcns per batch ...    50.95 (95.27%)
Maximum spatial batch extension              ...  25.60, 31.36, 17.92 au
Average spatial batch extension              ...   7.12,  6.73,  5.80 au

Time for grid setup =    0.016 sec

------------------------------
INITIAL GUESS: MODEL POTENTIAL
------------------------------
Loading Hartree-Fock densities                     ... done
Calculating cut-offs                               ... done
Setting up the integral package                    ... done
Initializing the effective Hamiltonian             ... done
Starting the Coulomb interaction                   ... done (   0.0 sec)
Reading the grid                                   ... done
Mapping shells                                     ... done
Starting the XC term evaluation                    ... done (   0.0 sec)
Transforming the Hamiltonian                       ... done (   0.0 sec)
Diagonalizing the Hamiltonian                      ... done (   0.0 sec)
Back transforming the eigenvectors                 ... done (   0.0 sec)
Now organizing SCF variables                       ... done
                      ------------------
                      INITIAL GUESS DONE (   0.1 sec)
                      ------------------
--------------
SCF ITERATIONS
--------------
ITER       Energy         Delta-E        Max-DP      RMS-DP      [F,P]     Damp
               ***  Starting incremental Fock matrix formation  ***
  0   -112.7369975080   0.000000000000 0.02988171  0.00113901  0.2937872 0.7000
  1   -112.7542350115  -0.017237503486 0.02016837  0.00077708  0.2190160 0.7000
                               ***Turning on DIIS***
  2   -112.7639637928  -0.009728781354 0.01156233  0.00048943  0.1618876 0.7000
  3   -112.8832910989  -0.119327306048 0.00587758  0.00032990  0.1182309 0.7000
  4   -112.8621204536   0.021170645293 0.01384571  0.00083109  0.0831694 0.0000
  5   -112.7912711086   0.070849345002 0.00360652  0.00014990  0.0055228 0.0000
                      *** Initiating the SOSCF procedure ***
                           *** Shutting down DIIS ***
                      *** Re-Reading the Fockian *** 
                      *** Removing any level shift *** 
ITER      Energy       Delta-E        Grad      Rot      Max-DP    RMS-DP
  6   -112.78352538   0.0077457322  0.000582  0.000582  0.001446  0.000056
               *** Restarting incremental Fock matrix formation ***
  7   -112.78527514  -0.0017497650  0.000364  0.000474  0.001207  0.000043
  8   -112.78527664  -0.0000014962  0.000129  0.000278  0.000682  0.000025
                 **** Energy Check signals convergence ****
              ***Rediagonalizing the Fockian in SOSCF/NRSCF***

               *****************************************************
               *                     SUCCESS                       *
               *           SCF CONVERGED AFTER   9 CYCLES          *
               *****************************************************


----------------
TOTAL SCF ENERGY
----------------

Total Energy       :         -112.78527690 Eh           -3069.04341 eV

Components:
Nuclear Repulsion  :           22.47832389 Eh             611.66629 eV
Electronic Energy  :         -135.26360080 Eh           -3680.70970 eV
One Electron Energy:         -198.15722711 Eh           -5392.13228 eV
Two Electron Energy:           62.89362631 Eh            1711.42258 eV

Virial components:
Potential Energy   :         -225.40308527 Eh           -6133.52977 eV
Kinetic Energy     :          112.61780837 Eh            3064.48636 eV
Virial Ratio       :            2.00148705


---------------
SCF CONVERGENCE
---------------

  Last Energy change         ...   -2.6731e-07  Tolerance :   1.0000e-06
  Last MAX-Density change    ...    3.8536e-05  Tolerance :   1.0000e-05
  Last RMS-Density change    ...    1.5334e-06  Tolerance :   1.0000e-06
  Last Orbital Gradient      ...    2.9725e-05  Tolerance :   5.0000e-05
  Last Orbital Rotation      ...    1.7839e-05  Tolerance :   5.0000e-05

             **** THE GBW FILE WAS UPDATED (orca.gbw) ****
             **** DENSITY FILE WAS UPDATED (orca.scfp) ****
             **** ENERGY FILE WAS UPDATED (orca.en.tmp) ****
             **** THE GBW FILE WAS UPDATED (orca.gbw) ****
             **** DENSITY FILE WAS UPDATED (orca.scfp) ****
----------------
ORBITAL ENERGIES
----------------

  NO   OCC          E(Eh)            E(eV) 
   0   2.0000     -20.665090      -562.3257 
   1   2.0000     -11.361609      -309.1651 
   2   2.0000      -1.520503       -41.3750 
   3   2.0000      -0.804026       -21.8786 
   4   2.0000      -0.639384       -17.3985 
   5   2.0000      -0.639384       -17.3985 
   6   2.0000      -0.554736       -15.0951 
   7   0.0000       0.128121         3.4863 
   8   0.0000       0.128121         3.4863 
   9   0.0000       0.214062         5.8249 
  10   0.0000       0.283173         7.7055 
  11   0.0000       0.354610         9.6494 
  12   0.0000       0.354610         9.6494 
  13   0.0000       0.500952        13.6316 
  14   0.0000       0.646234        17.5849 
  15   0.0000       0.646234        17.5849 
  16   0.0000       0.791954        21.5502 
  17   0.0000       0.817037        22.2327 
  18   0.0000       0.817037        22.2327 
  19   0.0000       0.871447        23.7133 
  20   0.0000       1.053728        28.6734 
  21   0.0000       1.053728        28.6734 
  22   0.0000       1.433644        39.0114 
  23   0.0000       1.511154        41.1206 
  24   0.0000       1.618523        44.0423 
  25   0.0000       1.655324        45.0437 
  26   0.0000       1.655324        45.0437 
  27   0.0000       1.773401        48.2567 
  28   0.0000       1.773401        48.2567 
  29   0.0000       2.172960        59.1293 
  30   0.0000       2.172960        59.1293 
  31   0.0000       2.505494        68.1780 
  32   0.0000       2.913234        79.2731 
  33   0.0000       2.913234        79.2731 
  34   0.0000       2.995114        81.5012 
  35   0.0000       2.995114        81.5012 
  36   0.0000       3.124819        85.0306 
  37   0.0000       3.124819        85.0306 
  38   0.0000       3.214786        87.4788 
  39   0.0000       3.250383        88.4474 
  40   0.0000       3.250383        88.4474 
  41   0.0000       3.320542        90.3566 
  42   0.0000       3.320542        90.3566 
  43   0.0000       3.414440        92.9116 
  44   0.0000       3.968325       107.9836 
  45   0.0000       3.968325       107.9836 
  46   0.0000       4.174129       113.5838 
  47   0.0000       4.617441       125.6470 
  48   0.0000       5.517868       150.1488 
  49   0.0000       5.517868       150.1488 
  50   0.0000       5.926059       161.2563 
  51   0.0000       5.926059       161.2563 
  52   0.0000       6.655429       181.1034 
  53   0.0000       6.655429       181.1034 
  54   0.0000       6.745041       183.5419 
  55   0.0000       6.745041       183.5419 
  56   0.0000       6.973729       189.7648 
  57   0.0000       7.167963       195.0502 
  58   0.0000       7.167963       195.0502 
  59   0.0000       7.557199       205.6419 
  60   0.0000      22.904268       623.2568 
  61   0.0000      45.025680      1225.2110 

                    ********************************
                    * MULLIKEN POPULATION ANALYSIS *
                    ********************************

-----------------------
MULLIKEN ATOMIC CHARGES
-----------------------
   0 C :    0.159522
   1 O :   -0.159522
Sum of atomic charges:    0.0000000

--------------------------------
MULLIKEN REDUCED ORBITAL CHARGES
--------------------------------
  0 C s       :     3.788780  s :     3.788780
      pz      :     0.989042  p :     1.912238
      px      :     0.461598
      py      :     0.461598
      dz2     :     0.028067  d :     0.124972
      dxz     :     0.048453
      dyz     :     0.048453
      dx2y2   :     0.000000
      dxy     :     0.000000
      f0      :     0.003327  f :     0.014487
      f+1     :     0.005580
      f-1     :     0.005580
      f+2     :     0.000000
      f-2     :     0.000000
      f+3     :     0.000000
      f-3     :     0.000000
  1 O s       :     3.793442  s :     3.793442
      pz      :     1.386249  p :     4.325918
      px      :     1.469835
      py      :     1.469835
      dz2     :     0.010440  d :     0.037892
      dxz     :     0.013726
      dyz     :     0.013726
      dx2y2   :     0.000000
      dxy     :     0.000000
      f0      :     0.000653  f :     0.002270
      f+1     :     0.000808
      f-1     :     0.000808
      f+2     :     0.000000
      f-2     :     0.000000
      f+3     :     0.000000
      f-3     :     0.000000


                     *******************************
                     * LOEWDIN POPULATION ANALYSIS *
                     *******************************

----------------------
LOEWDIN ATOMIC CHARGES
----------------------
   0 C :   -0.186193
   1 O :    0.186193

-------------------------------
LOEWDIN REDUCED ORBITAL CHARGES
-------------------------------
  0 C s       :     3.470961  s :     3.470961
      pz      :     1.261656  p :     2.273367
      px      :     0.505856
      py      :     0.505856
      dz2     :     0.145613  d :     0.352896
      dxz     :     0.103641
      dyz     :     0.103641
      dx2y2   :     0.000000
      dxy     :     0.000000
      f0      :     0.024894  f :     0.088969
      f+1     :     0.032037
      f-1     :     0.032037
      f+2     :     0.000000
      f-2     :     0.000000
      f+3     :     0.000000
      f-3     :     0.000000
  1 O s       :     3.426863  s :     3.426863
      pz      :     1.630493  p :     4.324313
      px      :     1.346910
      py      :     1.346910
      dz2     :     0.036054  d :     0.057301
      dxz     :     0.010624
      dyz     :     0.010624
      dx2y2   :     0.000000
      dxy     :     0.000000
      f0      :     0.003466  f :     0.005329
      f+1     :     0.000932
      f-1     :     0.000932
      f+2     :     0.000000
      f-2     :     0.000000
      f+3     :     0.000000
      f-3     :     0.000000


                      *****************************
                      * MAYER POPULATION ANALYSIS *
                      *****************************

  NA   - Mulliken gross atomic population
  ZA   - Total nuclear charge
  QA   - Mulliken gross atomic charge
  VA   - Mayer's total valence
  BVA  - Mayer's bonded valence
  FA   - Mayer's free valence

  ATOM       NA         ZA         QA         VA         BVA        FA
  0 C      5.8405     6.0000     0.1595     2.3530     2.3530     0.0000
  1 O      8.1595     8.0000    -0.1595     2.3530     2.3530    -0.0000

  Mayer bond orders larger than 0.100000
B(  0-C ,  1-O ) :   2.3530 

-------
TIMINGS
-------

Total SCF time: 0 days 0 hours 0 min 2 sec 

Total time                  ....       2.170 sec
Sum of individual times     ....       1.958 sec  ( 90.2%)

Fock matrix formation       ....       1.818 sec  ( 83.8%)
Diagonalization             ....       0.005 sec  (  0.2%)
Density matrix formation    ....       0.000 sec  (  0.0%)
Population analysis         ....       0.004 sec  (  0.2%)
Initial guess               ....       0.093 sec  (  4.3%)
Orbital Transformation      ....       0.000 sec  (  0.0%)
Orbital Orthonormalization  ....       0.000 sec  (  0.0%)
DIIS solution               ....       0.017 sec  (  0.8%)
SOSCF solution              ....       0.004 sec  (  0.2%)

-------------------------   --------------------
FINAL SINGLE POINT ENERGY      -112.785276904747
-------------------------   --------------------


                            ***************************************
                            *     ORCA property calculations      *
                            ***************************************

                                    ---------------------
                                    Active property flags
                                    ---------------------
   (+) Dipole Moment


------------------------------------------------------------------------------
                       ORCA ELECTRIC PROPERTIES CALCULATION
------------------------------------------------------------------------------

Dipole Moment Calculation                       ... on
Quadrupole Moment Calculation                   ... off
Polarizability Calculation                      ... off
GBWName                                         ... orca.gbw
Electron density file                           ... orca.scfp
The origin for moment calculation is the CENTER OF MASS  = ( 0.000000,  0.000000  1.219711)

-------------
DIPOLE MOMENT
-------------
                                X             Y             Z
Electronic contribution:      0.00000      -0.00000      -0.11361
Nuclear contribution   :      0.00000       0.00000       0.00717
                        -----------------------------------------
Total Dipole Moment    :      0.00000      -0.00000      -0.10645
                        -----------------------------------------
Magnitude (a.u.)       :      0.10645
Magnitude (Debye)      :      0.27057



--------------------
Rotational spectrum 
--------------------
 
Rotational constants in cm-1:     0.000000     1.924337     1.924337 
Rotational constants in MHz :     0.000000 57690.170226 57690.170226 

 Dipole components along the rotational axes: 
x,y,z [a.u.] :    -0.106447    -0.000000     0.000000 
x,y,z [Debye]:    -0.270567    -0.000000     0.000000 

 

Timings for individual modules:

Sum of individual times         ...       10.027 sec (=   0.167 min)
GTO integral calculation        ...        7.610 sec (=   0.127 min)  75.9 %
SCF iterations                  ...        2.417 sec (=   0.040 min)  24.1 %
                             ****ORCA TERMINATED NORMALLY****
TOTAL RUN TIME: 0 days 0 hours 0 minutes 10 seconds 414 msec
