
                                 *****************
                                 * O   R   C   A *
                                 *****************

           --- An Ab Initio, DFT and Semiempirical electronic structure package ---

                  #######################################################
                  #                        -***-                        #
                  #          Department of theory and spectroscopy      #
                  #               Directorship: Frank Neese             #
                  #        Max Planck Institute fuer Kohlenforschung    #
                  #                Kaiser Wilhelm Platz 1               #
                  #                 D-45470 Muelheim/Ruhr               #
                  #                      Germany                        #
                  #                                                     #
                  #                  All rights reserved                #
                  #                        -***-                        #
                  #######################################################


                         Program Version 4.2.1 -  RELEASE  -


 With contributions from (in alphabetic order):
   Daniel Aravena         : Magnetic Suceptibility
   Michael Atanasov       : Ab Initio Ligand Field Theory (pilot matlab implementation)
   Alexander A. Auer      : GIAO ZORA, VPT2
   Ute Becker             : Parallelization
   Giovanni Bistoni       : ED, misc. LED, open-shell LED, HFLD
   Martin Brehm           : Molecular dynamics
   Dmytro Bykov           : SCF Hessian
   Vijay G. Chilkuri      : MRCI spin determinant printing, contributions to CSF-ICE
   Dipayan Datta          : RHF DLPNO-CCSD density
   Achintya Kumar Dutta   : EOM-CC, STEOM-CC
   Dmitry Ganyushin       : Spin-Orbit,Spin-Spin,Magnetic field MRCI
   Miquel Garcia          : C-PCM Hessian, Gaussian charge scheme
   Yang Guo               : DLPNO-NEVPT2, CIM, IAO-localization
   Andreas Hansen         : Spin unrestricted coupled pair/coupled cluster methods
   Benjamin Helmich-Paris : CASSCF linear response (MC-RPA)
   Lee Huntington         : MR-EOM, pCC
   Robert Izsak           : Overlap fitted RIJCOSX, COSX-SCS-MP3, EOM
   Christian Kollmar      : KDIIS, OOCD, Brueckner-CCSD(T), CCSD density
   Simone Kossmann        : Meta GGA functionals, TD-DFT gradient, OOMP2, MP2 Hessian
   Martin Krupicka        : AUTO-CI
   Lucas Lang             : DCDCAS
   Dagmar Lenk            : GEPOL surface, SMD
   Dimitrios Liakos       : Extrapolation schemes; Compound Job, initial MDCI parallelization
   Dimitrios Manganas     : Further ROCIS development; embedding schemes
   Dimitrios Pantazis     : SARC Basis sets
   Taras Petrenko         : DFT Hessian,TD-DFT gradient, ASA, ECA, R-Raman, ABS, FL, XAS/XES, NRVS
   Peter Pinski           : DLPNO-MP2, DLPNO-MP2 Gradient
   Christoph Reimann      : Effective Core Potentials
   Marius Retegan         : Local ZFS, SOC
   Christoph Riplinger    : Optimizer, TS searches, QM/MM, DLPNO-CCSD(T), (RO)-DLPNO pert. Triples
   Tobias Risthaus        : Range-separated hybrids, TD-DFT gradient, RPA, STAB
   Michael Roemelt        : Original ROCIS implementation
   Masaaki Saitow         : Open-shell DLPNO-CCSD energy and density
   Barbara Sandhoefer     : DKH picture change effects
   Avijit Sen             : IP-ROCIS
   Kantharuban Sivalingam : CASSCF convergence, NEVPT2, FIC-MRCI
   Bernardo de Souza      : ESD, SOC TD-DFT
   Georgi Stoychev        : AutoAux, RI-MP2 NMR
   Willem Van den Heuvel  : Paramagnetic NMR
   Boris Wezisla          : Elementary symmetry handling
   Frank Wennmohs         : Technical directorship


 We gratefully acknowledge several colleagues who have allowed us to
 interface, adapt or use parts of their codes:
   Stefan Grimme, W. Hujo, H. Kruse,             : VdW corrections, initial TS optimization,
                  C. Bannwarth                     DFT functionals, gCP, sTDA/sTD-DF
   Ed Valeev, F. Pavosevic, A. Kumar             : LibInt (2-el integral package), F12 methods
   Garnet Chan, S. Sharma, J. Yang, R. Olivares  : DMRG
   Ulf Ekstrom                                   : XCFun DFT Library
   Mihaly Kallay                                 : mrcc  (arbitrary order and MRCC methods)
   Andreas Klamt, Michael Diedenhofen            : otool_cosmo (COSMO solvation model)
   Jiri Pittner, Ondrej Demel                    : Mk-CCSD
   Frank Weinhold                                : gennbo (NPA and NBO analysis)
   Christopher J. Cramer and Donald G. Truhlar   : smd solvation model
   Lars Goerigk                                  : TD-DFT with DH, B97 family of functionals
   V. Asgeirsson, H. Jonsson                     : NEB implementation
   FAccTs GmbH                                   : IRC, NEB, NEB-TS, Multilevel, MM, QM/MM, CI optimization
   S Lehtola, MJT Oliveira, MAL Marques          : LibXC Library


 Your calculation uses the libint2 library for the computation of 2-el integrals
 For citations please refer to: http://libint.valeyev.net

 Your ORCA version has been built with support for libXC version: 4.2.3
 For citations please refer to: https://tddft.org/programs/libxc/

 This ORCA versions uses:
   CBLAS   interface :  Fast vector & matrix operations
   LAPACKE interface :  Fast linear algebra routines
   SCALAPACK package :  Parallel linear algebra routines




***************************************
The coordinates will be read from file: cli4-mol.xyz
***************************************


Your calculation utilizes the semiempirical GFN2-xTB method
Please cite in your paper:
C. Bannwarth, Ehlert S., S. Grimme,  J. Chem. Theory Comput., 15, (2019), 1652.
   

----- Orbital basis set information -----
Your calculation utilizes the basis: def2-SVP
   F. Weigend and R. Ahlrichs, Phys. Chem. Chem. Phys. 7, 3297 (2005).

cite the ECPs for Ru [Def2-ECP] as follows:
Ce-Yb(ecp-28): M. Dolg, H. Stoll, H.Preuss, J. Chem. Phys., 1989, 90, 1730-1734.
Y-Cd(ecp-28), Hf-Hg(ecp-46): D. Andrae,U. Haeussermann, M. Dolg, H. Stoll, H. Preuss, Theor. Chim. Acta, 1990, 77, 123-141.
In-Sb(ecp-28), Tl-Bi(ecp-46): B. Metz, H. Stoll, M. Dolg, J. Chem. Phys., 2000, 113, 2563-2569.
Te-Xe(ecp-28), Po-Rn(ecp-46): K. A. Peterson, D. Figgen, E. Goll, H. Stoll, M. Dolg, J. Chem. Phys., 2003, 119, 11113-11123.
Rb(ecp-28), Cs(ecp-46): T. Leininger, A. Nicklass, W. Kuechle, H. Stoll, M. Dolg, A. Bergner, Chem. Phys. Lett., 1996, 255, 274-280.
Sr(ecp-28), Ba(ecp-46): M. Kaupp, P. V. Schleyer, H. Stoll and H. Preuss, J. Chem. Phys., 1991, 94, 1360-1366.
La(ecp-46): M. Dolg, H. Stoll, A. Savin, H. Preuss, Theor. Chim. Acta, 1989, 75, 173-194.
Lu(ecp-28): X. Cao, M. Dolg, J. Chem. Phys., 2001, 115, 7348-7355.

ECP parameters for Ru [Def2-ECP] have been obtained from:
TURBOMOLE (7.0.2)

================================================================================
                                        WARNINGS
                       Please study these warnings very carefully!
================================================================================

WARNING: Gradients needed for Numerical Frequencies
  ===> : Setting RunTyp to EnGrad

WARNING: The environment variable RSH_COMMAND is not set!
  ===> : All Displacements for the Numerical Hessian calculation
         will be started on localhost

WARNING: Found dipole moment calculation with XTB calculation
  ===> : Switching off dipole moment calculation


INFO   : the flag for use of LIBINT has been found!



***************************************
The coordinates will be read from file: 
***************************************


Your calculation utilizes the semiempirical GFN2-xTB method
Please cite in your paper:
C. Bannwarth, Ehlert S., S. Grimme,  J. Chem. Theory Comput., 15, (2019), 1652.
   

----- Orbital basis set information -----
Your calculation utilizes the basis: def2-SVP
   F. Weigend and R. Ahlrichs, Phys. Chem. Chem. Phys. 7, 3297 (2005).

cite the ECPs for Ru [Def2-ECP] as follows:
Ce-Yb(ecp-28): M. Dolg, H. Stoll, H.Preuss, J. Chem. Phys., 1989, 90, 1730-1734.
Y-Cd(ecp-28), Hf-Hg(ecp-46): D. Andrae,U. Haeussermann, M. Dolg, H. Stoll, H. Preuss, Theor. Chim. Acta, 1990, 77, 123-141.
In-Sb(ecp-28), Tl-Bi(ecp-46): B. Metz, H. Stoll, M. Dolg, J. Chem. Phys., 2000, 113, 2563-2569.
Te-Xe(ecp-28), Po-Rn(ecp-46): K. A. Peterson, D. Figgen, E. Goll, H. Stoll, M. Dolg, J. Chem. Phys., 2003, 119, 11113-11123.
Rb(ecp-28), Cs(ecp-46): T. Leininger, A. Nicklass, W. Kuechle, H. Stoll, M. Dolg, A. Bergner, Chem. Phys. Lett., 1996, 255, 274-280.
Sr(ecp-28), Ba(ecp-46): M. Kaupp, P. V. Schleyer, H. Stoll and H. Preuss, J. Chem. Phys., 1991, 94, 1360-1366.
La(ecp-46): M. Dolg, H. Stoll, A. Savin, H. Preuss, Theor. Chim. Acta, 1989, 75, 173-194.
Lu(ecp-28): X. Cao, M. Dolg, J. Chem. Phys., 2001, 115, 7348-7355.

ECP parameters for Ru [Def2-ECP] have been obtained from:
TURBOMOLE (7.0.2)

================================================================================
                                        WARNINGS
                       Please study these warnings very carefully!
================================================================================


WARNING: Geometry Optimization
  ===> : Switching off AutoStart
         For restart on a previous wavefunction, please use MOREAD

WARNING: Found dipole moment calculation with XTB calculation
  ===> : Switching off dipole moment calculation


INFO   : the flag for use of LIBINT has been found!

================================================================================
                                       INPUT FILE
================================================================================
NAME = cli4-mol.inp
|  1> ! XTB2 NumFreq
|  2> %pal nprocs 10 end
|  3> * xyzfile 0 1 cli4-mol.xyz
|  4> $new_job
|  5> ! XTB2 opt
|  6> %pal nprocs 10 end
|  7> %geom
|  8>   Constraints
|  9>   { B 6 8 2.4064 C }
| 10>   end
| 11>   Inhess Read
| 12>   InHessName "cli4-mol.hess"
| 13> end
| 14> * xyzfile 0 1
| 15> 
| 16>                          ****END OF INPUT****
================================================================================


                 $$$$$$$$$$$$$$$$$$$$$$$$$$$$$$$$$$$$$$$$$$$$$$ 
                 $ THERE ARE  2 JOBS TO BE PROCESSED THIS RUN $
                 $$$$$$$$$$$$$$$$$$$$$$$$$$$$$$$$$$$$$$$$$$$$$$ 




                 $$$$$$$$$$$$$$$$  JOB NUMBER  1 $$$$$$$$$$$$$$


                     *******************************
                     * Energy+Gradient Calculation *
                     *******************************

      -----------------------------------------------------------      
     |                   =====================                   |     
     |                           x T B                           |     
     |                   =====================                   |     
     |                         S. Grimme                         |     
     |          Mulliken Center for Theoretical Chemistry        |     
     |                    University of Bonn                     |     
      -----------------------------------------------------------      

   * xtb version 6.3.0 (afa6931) compiled by 'marcof@login-1-2.fram.sigma2.no' on 2020-02-22

   This program is distributed in the hope that it will be useful,
   but WITHOUT ANY WARRANTY; without even the implied warranty of
   MERCHANTABILITY or FITNESS FOR A PARTICULAR PURPOSE.
   
   FOR NON-COMMERCIAL, ACADEMIA USE ONLY.
   
   Cite this work as:
   * S. Grimme, C. Bannwarth, P. Shushkov, J. Chem. Theory Comput., 2017,
     13, 1989-2009. DOI: 10.1021/acs.jctc.7b00118
   * C. Bannwarth, S. Ehlert and S. Grimme., J. Chem. Theory Comput., 2019,
     15, 1652-1671. DOI: 10.1021/acs.jctc.8b01176
   * P. Pracht, E. Caldeweyher, S. Ehlert, S. Grimme, ChemRxiv, 2019, preprint.
     DOI: 10.26434/chemrxiv.8326202.v1
   
   for DFT-D4:
   * E. Caldeweyher, C. Bannwarth and S. Grimme, J. Chem. Phys., 2017,
     147, 034112. DOI: 10.1063/1.4993215
   * E. Caldeweyher, S. Ehlert, A. Hansen, H. Neugebauer, S. Spicher,
     C. Bannwarth and S. Grimme, J. Chem. Phys., 2019, 150, 154122.
     DOI: 10.1063/1.5090222
   
   for sTDA-xTB:
   * S. Grimme and C. Bannwarth, J. Chem. Phys., 2016, 145, 054103.
     DOI: 10.1063/1.4959605
   
   in the mass-spec context:
   * V. Asgeirsson, C. Bauer and S. Grimme, Chem. Sci., 2017, 8, 4879.
     DOI: 10.1039/c7sc00601b
   
   for metadynamics refer to:
   * S. Grimme, J. Chem. Theory Comput., 2019, 155, 2847-2862
     DOI: 10.1021/acs.jctc.9b00143
   
   with help from (in alphabetical order)
   C. Bannwarth, F. Bohle, G. Brandenburg, E. Caldeweyher, M. Checinski,
   S. Dohm, S. Ehlert, S. Ehrlich, F. März, H. Neugebauer, J. Pisarek,
   P. Pracht, P. Shushkov, and S. Spicher.
   
 * started run on 2020/09/11 at 11:08:32.431     

           -------------------------------------------------
          |                Calculation Setup                |
           -------------------------------------------------

          program call               : /cluster/projects/nn2506k/marcof/tools/orca_4_2_1_linux_x86-64_openmpi314/otool_xtb cli4-mol_XTB.xyz --grad -c 0 -u 0 -P 10 --namespace cli4-mol
          hostname                   : c52-2
          calculation namespace      : cli4-mol
          coordinate file            : cli4-mol_XTB.xyz
          omp threads                :                    10
          number of atoms            :                    55
          number of electrons        :                   124
          charge                     :                     0
          spin                       :                   0.0
          first test random number   :      0.51382857126902


molecular fragmentation (1/2 indicates fragments):
1111111111121111111111111111111111111111111111222211111
# atoms in fragment 1/2:    50     5
 fragment masses (1/2) :      343.49       31.03
CMA distance (Bohr)    :   5.550
constraining FC (au)   :  0.0500

########################################################################
# WARNING! Please study the warnings concerning your input carefully
#  - XTBHOME is not set, using HOME instead
#  - Process number higher than OMP_NUM_THREADS, I hope you know what you are doing.
########################################################################

           ------------------------------------------------- 
          |                 G F N 2 - x T B                 |
          | Geometry, Frequencies, Noncovalent interactions |
          |            JCTC 2019 parametrisation            |
           ------------------------------------------------- 
             k(s)              :                1.8500
             k(p)              :                2.2300
             k(d)              :                2.2300
             k(f)              :                2.0000
             kEN (H0ij)        :               -2.0000
             D4 a1             :                0.5200
             D4 a2             :                5.0000
             D4 s6             :                1.0000
             D4 s8             :                2.7000
             D4 s9             :                5.0000
             alphaj            :                2.0000

  Z AO/shell   Hii/eV     exponent
  1     Wed Apr 25 08:07:45 CEST 2018   EN: 2.200 GM2: 0.406  GM3: 0.0800  RAES: 1.40
     1s    -10.707211    1.230000
  6     Wed Apr 25 08:07:45 CEST 2018   EN: 2.550 GM2: 0.538  GM3: 0.1500  RAES: 3.00
     2s    -13.970922    2.096432
     2p    -10.063292    1.800000
  7     Wed Apr 25 08:07:45 CEST 2018   EN: 3.040 GM2: 0.461  GM3:-0.0640  RAES: 1.90
     2s    -16.686243    2.339881
     2p    -12.523956    2.014332
  8     Wed Apr 25 08:07:45 CEST 2018   EN: 3.440 GM2: 0.452  GM3:-0.0517  RAES: 1.80
     2s    -20.229985    2.439742
     2p    -15.503117    2.137023
 44     Wed Apr 25 22:11:15 CEST 2018   EN: 2.200 GM2: 0.711  GM3:-0.0500  RAES: 5.00
     4d    -10.285405    2.102697
     5s     -5.332608    1.749643
     5p     -3.307153    1.348322

           ------------------------------------------------- 
          |        Self-Consistent Charge Iterations        |
           ------------------------------------------------- 

          ...................................................
          :                      SETUP                      :
          :.................................................:
          :  # basis functions                 121          :
          :  # atomic orbitals                 120          :
          :  # shells                           76          :
          :  # electrons                       124          :
          :  max. iterations                   250          :
          :  Hamiltonian                  GFN2-xTB          :
          :  restarted?                      false          :
          :  GBSA solvation                  false          :
          :  PC potential                    false          :
          :  electronic temp.          300.0000000     K    :
          :  accuracy                    1.0000000          :
          :  -> integral cutoff          0.2500000E+02      :
          :  -> integral neglect         0.1000000E-07      :
          :  -> SCF convergence          0.1000000E-05 Eh   :
          :  -> wf. convergence          0.1000000E-03 e    :
          :  Broyden damping             0.4000000          :
          ...................................................

 iter      E             dE          RMSdq      gap      omega  full diag
   1    -64.3325742 -0.643326E+02  0.715E+00    1.35       0.0  T
   2    -59.4227943  0.490978E+01  0.113E+01    3.37       1.0  T
   3    -66.5160289 -0.709323E+01  0.350E+00    1.59       1.0  T
   4    -66.8439868 -0.327958E+00  0.270E+00    1.89       1.0  T
   5    -66.9118412 -0.678544E-01  0.177E+00    1.58       1.0  T
   6    -66.9790240 -0.671828E-01  0.727E-01    1.23       1.0  T
   7    -66.9883276 -0.930355E-02  0.425E-01    1.41       1.0  T
   8    -66.9925648 -0.423722E-02  0.205E-01    1.38       1.0  T
   9    -66.9935288 -0.963980E-03  0.761E-02    1.34       1.0  T
  10    -66.9936379 -0.109102E-03  0.450E-02    1.35       1.0  T
  11    -66.9936702 -0.322771E-04  0.183E-02    1.34       1.0  T
  12    -66.9936732 -0.309634E-05  0.138E-02    1.35       1.0  T
  13    -66.9936747 -0.149215E-05  0.645E-03    1.35       2.1  T
  14    -66.9936753 -0.565586E-06  0.213E-03    1.34       6.3  T
  15    -66.9936755 -0.207196E-06  0.791E-04    1.34      17.0  T
  16    -66.9936755 -0.109369E-07  0.676E-04    1.34      20.0  T

   *** convergence criteria satisfied after 16 iterations ***

         #    Occupation            Energy/Eh            Energy/eV
      -------------------------------------------------------------
         1        2.0000           -0.6630244             -18.0418
       ...           ...                  ...                  ...
        56        2.0000           -0.3574869              -9.7277
        57        2.0000           -0.3543007              -9.6410
        58        2.0000           -0.3369380              -9.1685
        59        2.0000           -0.3309018              -9.0043
        60        2.0000           -0.3287455              -8.9456
        61        2.0000           -0.3090131              -8.4087
        62        2.0000           -0.3062159              -8.3326 (HOMO)
        63                         -0.2567957              -6.9878 (LUMO)
        64                         -0.2469689              -6.7204
        65                         -0.2138151              -5.8182
        66                         -0.1988031              -5.4097
        67                         -0.1791374              -4.8746
       ...                                ...                  ...
       120                          2.3196328              63.1204
      -------------------------------------------------------------
                  HL-Gap            0.0494202 Eh            1.3448 eV
             Fermi-level           -0.2814818 Eh           -7.6595 eV

 SCC (total)                   0 d,  0 h,  0 min,  0.076 sec
 SCC setup                      ...        0 min,  0.001 sec (  1.068%)
 Dispersion                     ...        0 min,  0.001 sec (  1.339%)
 integral evaluation            ...        0 min,  0.010 sec ( 12.608%)
 zeroth order Hamiltonian       ...        0 min,  0.001 sec (  0.694%)
 iterations                     ...        0 min,  0.051 sec ( 67.379%)
 molecular gradient             ...        0 min,  0.011 sec ( 14.157%)
 printout                       ...        0 min,  0.002 sec (  2.620%)

         :::::::::::::::::::::::::::::::::::::::::::::::::::::
         ::                     SUMMARY                     ::
         :::::::::::::::::::::::::::::::::::::::::::::::::::::
         :: total energy             -66.217484118793 Eh    ::
         :: gradient norm              0.092281210970 Eh/a0 ::
         :: HOMO-LUMO gap              1.344791539134 eV    ::
         ::.................................................::
         :: SCC energy               -66.993675525487 Eh    ::
         :: -> isotropic ES            0.106727179172 Eh    ::
         :: -> anisotropic ES          0.006603686766 Eh    ::
         :: -> anisotropic XC          0.028149286823 Eh    ::
         :: -> dispersion             -0.062124232138 Eh    ::
         :: repulsion energy           0.773856023911 Eh    ::
         :: add. restraining           0.000000000000 Eh    ::
         :::::::::::::::::::::::::::::::::::::::::::::::::::::

           -------------------------------------------------
          |                Property Printout                |
           -------------------------------------------------

    * Orbital Energies and Occupations

         #    Occupation            Energy/Eh            Energy/eV
      -------------------------------------------------------------
         1        2.0000           -0.6630244             -18.0418
       ...           ...                  ...                  ...
        50        2.0000           -0.4259080             -11.5895
        51        2.0000           -0.4229541             -11.5092
        52        2.0000           -0.4145352             -11.2801
        53        2.0000           -0.4103068             -11.1650
        54        2.0000           -0.3837467             -10.4423
        55        2.0000           -0.3773031             -10.2669
        56        2.0000           -0.3574869              -9.7277
        57        2.0000           -0.3543007              -9.6410
        58        2.0000           -0.3369380              -9.1685
        59        2.0000           -0.3309018              -9.0043
        60        2.0000           -0.3287455              -8.9456
        61        2.0000           -0.3090131              -8.4087
        62        2.0000           -0.3062159              -8.3326 (HOMO)
        63                         -0.2567957              -6.9878 (LUMO)
        64                         -0.2469689              -6.7204
        65                         -0.2138151              -5.8182
        66                         -0.1988031              -5.4097
        67                         -0.1791374              -4.8746
        68                         -0.0482003              -1.3116
        69                          0.0188672               0.5134
        70                          0.0229247               0.6238
        71                          0.0541834               1.4744
        72                          0.0582896               1.5861
        73                          0.0670517               1.8246
       ...                                ...                  ...
       120                          2.3196328              63.1204
      -------------------------------------------------------------
                  HL-Gap            0.0494202 Eh            1.3448 eV
             Fermi-level           -0.2814818 Eh           -7.6595 eV

     #   Z        covCN         q      C6AA      α(0)
     1   6 C      3.762    -0.090    22.268     6.727
     2   6 C      3.727     0.006    20.572     6.476
     3   1 H      0.924     0.078     2.002     2.212
     4   1 H      0.923     0.042     2.427     2.436
     5   1 H      0.923     0.068     2.112     2.273
     6  44 Ru     4.626    -0.100   320.319    37.911
     7   6 C      3.562     0.022    21.078     6.692
     8   1 H      0.924     0.079     1.991     2.206
     9   6 C      2.819    -0.060    29.468     8.894
    10   6 C      2.816     0.026    27.414     8.579
    11   8 O      1.437    -0.537    23.936     6.592
    12   8 O      1.437    -0.526    23.690     6.558
    13   1 H      0.924     0.075     2.035     2.231
    14   1 H      0.924     0.074     2.042     2.235
    15   6 C      3.911     0.043    19.803     6.325
    16   7 N      2.731     0.006    21.160     6.832
    17   6 C      3.796    -0.103    22.467     6.749
    18   6 C      3.752    -0.106    22.586     6.777
    19   6 C      3.753    -0.100    22.476     6.760
    20   1 H      0.923     0.060     2.198     2.318
    21   1 H      0.924     0.028     2.617     2.530
    22   1 H      0.918     0.121     1.606     1.982
    23   1 H      0.924     0.037     2.487     2.466
    24   1 H      0.924     0.033     2.542     2.493
    25   1 H      0.922     0.053     2.281     2.362
    26   1 H      0.924     0.031     2.566     2.505
    27   1 H      0.924     0.035     2.512     2.479
    28   1 H      0.923     0.039     2.468     2.457
    29   6 C      3.774     0.032    20.071     6.384
    30   6 C      3.681    -0.088    22.402     6.778
    31   6 C      3.749    -0.108    22.636     6.786
    32   6 C      3.749    -0.111    22.679     6.792
    33   1 H      0.917     0.060     2.204     2.322
    34   1 H      0.924     0.046     2.374     2.409
    35   1 H      0.924     0.043     2.410     2.428
    36   1 H      0.923     0.048     2.346     2.395
    37   1 H      0.924     0.048     2.341     2.393
    38   1 H      0.924     0.046     2.371     2.408
    39   1 H      0.924     0.044     2.395     2.420
    40   1 H      0.912     0.153     1.375     1.834
    41   1 H      0.923     0.070     2.086     2.258
    42   1 H      0.924     0.058     2.221     2.330
    43   6 C      3.654     0.101    19.207     6.293
    44   1 H      0.923    -0.009     3.216     2.804
    45   1 H      0.923     0.002     3.018     2.717
    46   1 H      0.922    -0.005     3.151     2.776
    47   6 C      3.634     0.087    19.512     6.357
    48   1 H      0.923     0.001     3.043     2.728
    49   1 H      0.922    -0.004     3.125     2.765
    50   1 H      0.923    -0.002     3.100     2.753
    51   6 C      3.749    -0.103    22.541     6.771
    52   1 H      0.924     0.082     1.961     2.190
    53   1 H      0.924     0.049     2.338     2.391
    54   1 H      0.923     0.049     2.335     2.390
    55   1 H      0.924     0.080     1.978     2.200

 Mol. C6AA /au·bohr⁶  :      25802.645160
 Mol. C8AA /au·bohr⁸  :     692113.981550
 Mol. α(0) /au        :        252.132185


Wiberg/Mayer (AO) data.
largest (>0.10) Wiberg bond orders for each atom
          total WBO             WBO to atom ...
     1  C   3.993        C    2 1.003    H    3 0.967    H    4 0.963    H    5 0.937
     2  C   3.993        C    7 1.430    C    1 1.003    H    8 0.906    Ru   6 0.568
     3  H   0.993        C    1 0.967
     4  H   0.998        C    1 0.963
     5  H   0.994        C    1 0.937
     6  Ru  5.974        C    9 1.667    C   10 1.086    O   12 0.648    O   11 0.610    C    2 0.568    C    7 0.228    N   16 0.143
     7  C   3.983        C    2 1.430    C   51 1.016    H   52 0.932    C    9 0.292    Ru   6 0.228
     8  H   0.993        C    2 0.906
     9  C   3.894        Ru   6 1.667    H   13 0.903    H   14 0.888    C    7 0.292
    10  C   3.776        N   16 1.486    Ru   6 1.086    C   15 0.961
    11  O   1.906        C   43 1.049    Ru   6 0.610
    12  O   1.941        C   47 1.053    Ru   6 0.648
    13  H   0.993        C    9 0.903
    14  H   0.994        C    9 0.888
    15  C   3.991        C   17 0.979    C   18 0.979    C   19 0.976    C   10 0.961
    16  N   3.635        C   10 1.486    C   30 0.966    C   29 0.937    Ru   6 0.143
    17  C   3.987        H   21 0.981    C   15 0.979    H   20 0.919    H   22 0.914
    18  C   3.991        H   23 0.982    C   15 0.979    H   24 0.955    H   25 0.943
    19  C   3.994        H   27 0.983    H   26 0.978    C   15 0.976    H   28 0.955
    20  H   0.996        C   17 0.919
    21  H   0.997        C   17 0.981
    22  H   0.985        C   17 0.914
    23  H   0.998        C   18 0.982
    24  H   0.999        C   18 0.955
    25  H   0.997        C   18 0.943
    26  H   0.999        C   19 0.978
    27  H   0.998        C   19 0.983
    28  H   0.998        C   19 0.955
    29  C   3.967        C   31 1.004    C   32 1.003    N   16 0.937    H   33 0.925
    30  C   3.938        H   42 0.973    N   16 0.966    H   41 0.950    H   40 0.895
    31  C   3.989        C   29 1.004    H   36 0.983    H   35 0.983    H   34 0.978
    32  C   3.993        C   29 1.003    H   38 0.985    H   37 0.983    H   39 0.982
    33  H   0.996        C   29 0.925
    34  H   0.997        C   31 0.978
    35  H   0.997        C   31 0.983
    36  H   0.998        C   31 0.983
    37  H   0.997        C   32 0.983
    38  H   0.998        C   32 0.985
    39  H   0.996        C   32 0.982
    40  H   0.976        C   30 0.895
    41  H   0.995        C   30 0.950
    42  H   0.996        C   30 0.973
    43  C   3.989        O   11 1.049    H   45 0.965    H   44 0.942    H   46 0.919
    44  H   0.999        C   43 0.942
    45  H   0.996        C   43 0.965
    46  H   0.999        C   43 0.919
    47  C   3.988        O   12 1.053    H   48 0.967    H   50 0.948    H   49 0.915
    48  H   0.996        C   47 0.967
    49  H   1.000        C   47 0.915
    50  H   1.000        C   47 0.948
    51  C   3.991        C    7 1.016    H   53 0.983    H   55 0.968    H   54 0.963
    52  H   0.992        C    7 0.932
    53  H   0.997        C   51 0.983
    54  H   0.996        C   51 0.963
    55  H   0.993        C   51 0.968

molecular dipole:
                 x           y           z       tot (Debye)
 q only:       -0.141      -1.077       0.611
   full:       -0.469      -1.189       0.078       3.256
molecular quadrupole (traceless):
                xx          xy          yy          xz          yz          zz
 q only:      -14.177      -0.772      16.651      12.841      -4.111      -2.475
  q+dip:      -11.608      -0.854      16.159      13.271      -4.624      -4.551
   full:      -11.323      -1.543      16.707      13.835      -4.967      -5.384


           -------------------------------------------------
          | TOTAL ENERGY              -66.217484118793 Eh   |
          | GRADIENT NORM               0.092281210970 Eh/α |
          | HOMO-LUMO GAP               1.344791539134 eV   |
           -------------------------------------------------

------------------------------------------------------------------------
 * finished run on 2020/09/11 at 11:08:32.595     
------------------------------------------------------------------------
 total:
 * wall-time:     0 d,  0 h,  0 min,  0.163 sec
 *  cpu-time:     0 d,  0 h,  0 min,  1.176 sec
 * ratio c/w:     7.206 speedup
 SCF:
 * wall-time:     0 d,  0 h,  0 min,  0.077 sec
 *  cpu-time:     0 d,  0 h,  0 min,  0.745 sec
 * ratio c/w:     9.696 speedup


-------------------------   --------------------
FINAL SINGLE POINT ENERGY       -66.217484118790
-------------------------   --------------------


----------------------------------------------------------------------------
                           ORCA NUMERICAL FREQUENCIES
                              (10-process run)
----------------------------------------------------------------------------

Number of atoms                ... 55
Central differences            ... used
Number of displacements        ... 330
Numerical increment            ... 5.000e-03 bohr
IR-spectrum generation         ... on
Raman-spectrum generation      ... off
Surface Crossing Hessian       ... off
List of participating nodes    ...  cli4-mol.hostnames

The output will be reduced. Please look at the following files:
SCF program output             ... >cli4-mol.lastscf
Integral program output        ... >cli4-mol.lastint
Gradient program output        ... >cli4-mol.lastgrad
Dipole moment program output   ... >cli4-mol.lastmom
AutoCI program output          ... >cli4-mol.lastautoci


         <<< Energy and Gradient at the input geometry >>>

        <<< Energy and Gradient at displaced geometries >>>
             <<<Displacing   1/coordinate 2 (+)>>>
             <<<Displacing   1/coordinate 3 (+)>>>
             <<<Displacing   1/coordinate 1 (+)>>>
             <<<Displacing   3/coordinate 3 (+)>>>
             <<<Displacing   2/coordinate 3 (+)>>>
             <<<Displacing   3/coordinate 1 (+)>>>
             <<<Displacing   4/coordinate 1 (+)>>>
             <<<Displacing   2/coordinate 1 (+)>>>
             <<<Displacing   3/coordinate 2 (+)>>>
             <<<Displacing   2/coordinate 2 (+)>>>
             <<<Displacing   2/coordinate 3 (-)>>>
             <<<Displacing   4/coordinate 1 (-)>>>
             <<<Displacing   1/coordinate 1 (-)>>>
             <<<Displacing   2/coordinate 1 (-)>>>
             <<<Displacing   2/coordinate 2 (-)>>>
             <<<Displacing   1/coordinate 3 (-)>>>
             <<<Displacing   3/coordinate 2 (-)>>>
             <<<Displacing   1/coordinate 2 (-)>>>
             <<<Displacing   3/coordinate 3 (-)>>>
             <<<Displacing   3/coordinate 1 (-)>>>
             <<<Displacing   4/coordinate 2 (+)>>>
             <<<Displacing   4/coordinate 3 (+)>>>
             <<<Displacing   5/coordinate 2 (+)>>>
             <<<Displacing   5/coordinate 1 (+)>>>
             <<<Displacing   5/coordinate 3 (+)>>>
             <<<Displacing   6/coordinate 2 (+)>>>
             <<<Displacing   6/coordinate 1 (+)>>>
             <<<Displacing   6/coordinate 3 (+)>>>
             <<<Displacing   7/coordinate 2 (+)>>>
             <<<Displacing   7/coordinate 1 (+)>>>
             <<<Displacing   4/coordinate 2 (-)>>>
             <<<Displacing   5/coordinate 1 (-)>>>
             <<<Displacing   4/coordinate 3 (-)>>>
             <<<Displacing   6/coordinate 2 (-)>>>
             <<<Displacing   5/coordinate 2 (-)>>>
             <<<Displacing   5/coordinate 3 (-)>>>
             <<<Displacing   6/coordinate 1 (-)>>>
             <<<Displacing   6/coordinate 3 (-)>>>
             <<<Displacing   7/coordinate 2 (-)>>>
             <<<Displacing   7/coordinate 1 (-)>>>
             <<<Displacing   7/coordinate 3 (+)>>>
             <<<Displacing   8/coordinate 1 (+)>>>
             <<<Displacing   7/coordinate 3 (-)>>>
             <<<Displacing   8/coordinate 3 (+)>>>
             <<<Displacing   8/coordinate 2 (+)>>>
             <<<Displacing   9/coordinate 1 (+)>>>
             <<<Displacing   8/coordinate 1 (-)>>>
             <<<Displacing   9/coordinate 3 (+)>>>
             <<<Displacing   9/coordinate 2 (+)>>>
             <<<Displacing  10/coordinate 3 (+)>>>
             <<<Displacing  10/coordinate 2 (+)>>>
             <<<Displacing  10/coordinate 1 (+)>>>
             <<<Displacing   8/coordinate 3 (-)>>>
             <<<Displacing   9/coordinate 1 (-)>>>
             <<<Displacing   8/coordinate 2 (-)>>>
             <<<Displacing   9/coordinate 2 (-)>>>
             <<<Displacing   9/coordinate 3 (-)>>>
             <<<Displacing  10/coordinate 2 (-)>>>
             <<<Displacing  10/coordinate 1 (-)>>>
             <<<Displacing  10/coordinate 3 (-)>>>
             <<<Displacing  11/coordinate 1 (+)>>>
             <<<Displacing  11/coordinate 2 (+)>>>
             <<<Displacing  11/coordinate 1 (-)>>>
             <<<Displacing  11/coordinate 3 (+)>>>
             <<<Displacing  12/coordinate 1 (+)>>>
             <<<Displacing  11/coordinate 2 (-)>>>
             <<<Displacing  12/coordinate 2 (+)>>>
             <<<Displacing  12/coordinate 3 (+)>>>
             <<<Displacing  13/coordinate 1 (+)>>>
             <<<Displacing  14/coordinate 1 (+)>>>
             <<<Displacing  13/coordinate 2 (+)>>>
             <<<Displacing  13/coordinate 3 (+)>>>
             <<<Displacing  11/coordinate 3 (-)>>>
             <<<Displacing  12/coordinate 1 (-)>>>
             <<<Displacing  12/coordinate 2 (-)>>>
             <<<Displacing  12/coordinate 3 (-)>>>
             <<<Displacing  13/coordinate 1 (-)>>>
             <<<Displacing  13/coordinate 3 (-)>>>
             <<<Displacing  14/coordinate 1 (-)>>>
             <<<Displacing  13/coordinate 2 (-)>>>
             <<<Displacing  14/coordinate 2 (+)>>>
             <<<Displacing  14/coordinate 3 (+)>>>
             <<<Displacing  14/coordinate 2 (-)>>>
             <<<Displacing  14/coordinate 3 (-)>>>
             <<<Displacing  15/coordinate 1 (+)>>>
             <<<Displacing  15/coordinate 2 (+)>>>
             <<<Displacing  15/coordinate 3 (+)>>>
             <<<Displacing  16/coordinate 1 (+)>>>
             <<<Displacing  16/coordinate 2 (+)>>>
             <<<Displacing  16/coordinate 3 (+)>>>
             <<<Displacing  17/coordinate 1 (+)>>>
             <<<Displacing  15/coordinate 1 (-)>>>
             <<<Displacing  17/coordinate 2 (+)>>>
             <<<Displacing  15/coordinate 3 (-)>>>
             <<<Displacing  15/coordinate 2 (-)>>>
             <<<Displacing  16/coordinate 1 (-)>>>
             <<<Displacing  16/coordinate 2 (-)>>>
             <<<Displacing  17/coordinate 1 (-)>>>
             <<<Displacing  16/coordinate 3 (-)>>>
             <<<Displacing  17/coordinate 2 (-)>>>
             <<<Displacing  17/coordinate 3 (+)>>>
             <<<Displacing  18/coordinate 1 (+)>>>
             <<<Displacing  17/coordinate 3 (-)>>>
             <<<Displacing  18/coordinate 1 (-)>>>
             <<<Displacing  18/coordinate 2 (+)>>>
             <<<Displacing  18/coordinate 3 (+)>>>
             <<<Displacing  19/coordinate 1 (+)>>>
             <<<Displacing  19/coordinate 2 (+)>>>
             <<<Displacing  19/coordinate 3 (+)>>>
             <<<Displacing  18/coordinate 2 (-)>>>
             <<<Displacing  20/coordinate 2 (+)>>>
             <<<Displacing  20/coordinate 1 (+)>>>
             <<<Displacing  19/coordinate 1 (-)>>>
             <<<Displacing  19/coordinate 2 (-)>>>
             <<<Displacing  19/coordinate 3 (-)>>>
             <<<Displacing  20/coordinate 2 (-)>>>
             <<<Displacing  20/coordinate 1 (-)>>>
             <<<Displacing  18/coordinate 3 (-)>>>
             <<<Displacing  20/coordinate 3 (+)>>>
             <<<Displacing  20/coordinate 3 (-)>>>
             <<<Displacing  21/coordinate 1 (+)>>>
             <<<Displacing  21/coordinate 2 (+)>>>
             <<<Displacing  21/coordinate 1 (-)>>>
             <<<Displacing  21/coordinate 2 (-)>>>
             <<<Displacing  21/coordinate 3 (+)>>>
             <<<Displacing  22/coordinate 1 (+)>>>
             <<<Displacing  22/coordinate 2 (+)>>>
             <<<Displacing  22/coordinate 3 (+)>>>
             <<<Displacing  21/coordinate 3 (-)>>>
             <<<Displacing  23/coordinate 1 (+)>>>
             <<<Displacing  23/coordinate 2 (+)>>>
             <<<Displacing  22/coordinate 1 (-)>>>
             <<<Displacing  22/coordinate 2 (-)>>>
             <<<Displacing  23/coordinate 3 (+)>>>
             <<<Displacing  22/coordinate 3 (-)>>>
             <<<Displacing  23/coordinate 1 (-)>>>
             <<<Displacing  23/coordinate 2 (-)>>>
             <<<Displacing  23/coordinate 3 (-)>>>
             <<<Displacing  24/coordinate 1 (+)>>>
             <<<Displacing  24/coordinate 1 (-)>>>
             <<<Displacing  24/coordinate 2 (+)>>>
             <<<Displacing  24/coordinate 3 (+)>>>
             <<<Displacing  24/coordinate 2 (-)>>>
             <<<Displacing  24/coordinate 3 (-)>>>
             <<<Displacing  25/coordinate 1 (+)>>>
             <<<Displacing  25/coordinate 2 (+)>>>
             <<<Displacing  25/coordinate 1 (-)>>>
             <<<Displacing  25/coordinate 3 (+)>>>
             <<<Displacing  26/coordinate 1 (+)>>>
             <<<Displacing  26/coordinate 2 (+)>>>
             <<<Displacing  26/coordinate 3 (+)>>>
             <<<Displacing  25/coordinate 2 (-)>>>
             <<<Displacing  27/coordinate 1 (+)>>>
             <<<Displacing  25/coordinate 3 (-)>>>
             <<<Displacing  26/coordinate 1 (-)>>>
             <<<Displacing  26/coordinate 2 (-)>>>
             <<<Displacing  26/coordinate 3 (-)>>>
             <<<Displacing  27/coordinate 2 (+)>>>
             <<<Displacing  27/coordinate 1 (-)>>>
             <<<Displacing  27/coordinate 2 (-)>>>
             <<<Displacing  27/coordinate 3 (+)>>>
             <<<Displacing  28/coordinate 1 (+)>>>
             <<<Displacing  27/coordinate 3 (-)>>>
             <<<Displacing  28/coordinate 1 (-)>>>
             <<<Displacing  28/coordinate 2 (+)>>>
             <<<Displacing  28/coordinate 3 (+)>>>
             <<<Displacing  28/coordinate 2 (-)>>>
             <<<Displacing  29/coordinate 2 (+)>>>
             <<<Displacing  29/coordinate 1 (+)>>>
             <<<Displacing  29/coordinate 3 (+)>>>
             <<<Displacing  28/coordinate 3 (-)>>>
             <<<Displacing  30/coordinate 1 (+)>>>
             <<<Displacing  29/coordinate 1 (-)>>>
             <<<Displacing  29/coordinate 2 (-)>>>
             <<<Displacing  30/coordinate 2 (+)>>>
             <<<Displacing  29/coordinate 3 (-)>>>
             <<<Displacing  30/coordinate 1 (-)>>>
             <<<Displacing  30/coordinate 3 (+)>>>
             <<<Displacing  30/coordinate 2 (-)>>>
             <<<Displacing  30/coordinate 3 (-)>>>
             <<<Displacing  31/coordinate 1 (+)>>>
             <<<Displacing  31/coordinate 2 (+)>>>
             <<<Displacing  31/coordinate 1 (-)>>>
             <<<Displacing  31/coordinate 2 (-)>>>
             <<<Displacing  31/coordinate 3 (+)>>>
             <<<Displacing  32/coordinate 1 (+)>>>
             <<<Displacing  31/coordinate 3 (-)>>>
             <<<Displacing  32/coordinate 2 (+)>>>
             <<<Displacing  32/coordinate 3 (+)>>>
             <<<Displacing  32/coordinate 1 (-)>>>
             <<<Displacing  33/coordinate 1 (+)>>>
             <<<Displacing  33/coordinate 2 (+)>>>
             <<<Displacing  32/coordinate 2 (-)>>>
             <<<Displacing  33/coordinate 3 (+)>>>
             <<<Displacing  32/coordinate 3 (-)>>>
             <<<Displacing  33/coordinate 1 (-)>>>
             <<<Displacing  33/coordinate 2 (-)>>>
             <<<Displacing  34/coordinate 1 (+)>>>
             <<<Displacing  33/coordinate 3 (-)>>>
             <<<Displacing  34/coordinate 1 (-)>>>
             <<<Displacing  34/coordinate 2 (+)>>>
             <<<Displacing  34/coordinate 3 (+)>>>
             <<<Displacing  34/coordinate 2 (-)>>>
             <<<Displacing  34/coordinate 3 (-)>>>
             <<<Displacing  35/coordinate 1 (+)>>>
             <<<Displacing  35/coordinate 2 (+)>>>
             <<<Displacing  35/coordinate 3 (+)>>>
             <<<Displacing  35/coordinate 1 (-)>>>
             <<<Displacing  36/coordinate 1 (+)>>>
             <<<Displacing  35/coordinate 2 (-)>>>
             <<<Displacing  36/coordinate 2 (+)>>>
             <<<Displacing  36/coordinate 3 (+)>>>
             <<<Displacing  35/coordinate 3 (-)>>>
             <<<Displacing  36/coordinate 1 (-)>>>
             <<<Displacing  37/coordinate 1 (+)>>>
             <<<Displacing  36/coordinate 2 (-)>>>
             <<<Displacing  36/coordinate 3 (-)>>>
             <<<Displacing  37/coordinate 2 (+)>>>
             <<<Displacing  37/coordinate 1 (-)>>>
             <<<Displacing  37/coordinate 2 (-)>>>
             <<<Displacing  37/coordinate 3 (+)>>>
             <<<Displacing  38/coordinate 1 (+)>>>
             <<<Displacing  37/coordinate 3 (-)>>>
             <<<Displacing  38/coordinate 1 (-)>>>
             <<<Displacing  38/coordinate 2 (+)>>>
             <<<Displacing  38/coordinate 3 (+)>>>
             <<<Displacing  38/coordinate 2 (-)>>>
             <<<Displacing  39/coordinate 1 (+)>>>
             <<<Displacing  39/coordinate 2 (+)>>>
             <<<Displacing  39/coordinate 3 (+)>>>
             <<<Displacing  38/coordinate 3 (-)>>>
             <<<Displacing  40/coordinate 1 (+)>>>
             <<<Displacing  39/coordinate 1 (-)>>>
             <<<Displacing  39/coordinate 2 (-)>>>
             <<<Displacing  39/coordinate 3 (-)>>>
             <<<Displacing  40/coordinate 2 (+)>>>
             <<<Displacing  40/coordinate 1 (-)>>>
             <<<Displacing  40/coordinate 2 (-)>>>
             <<<Displacing  40/coordinate 3 (+)>>>
             <<<Displacing  40/coordinate 3 (-)>>>
             <<<Displacing  41/coordinate 1 (+)>>>
             <<<Displacing  41/coordinate 2 (+)>>>
             <<<Displacing  41/coordinate 1 (-)>>>
             <<<Displacing  41/coordinate 2 (-)>>>
             <<<Displacing  41/coordinate 3 (+)>>>
             <<<Displacing  42/coordinate 1 (+)>>>
             <<<Displacing  41/coordinate 3 (-)>>>
             <<<Displacing  42/coordinate 2 (+)>>>
             <<<Displacing  42/coordinate 3 (+)>>>
             <<<Displacing  43/coordinate 1 (+)>>>
             <<<Displacing  42/coordinate 1 (-)>>>
             <<<Displacing  43/coordinate 2 (+)>>>
             <<<Displacing  42/coordinate 2 (-)>>>
             <<<Displacing  42/coordinate 3 (-)>>>
             <<<Displacing  43/coordinate 1 (-)>>>
             <<<Displacing  43/coordinate 2 (-)>>>
             <<<Displacing  43/coordinate 3 (+)>>>
             <<<Displacing  44/coordinate 1 (+)>>>
             <<<Displacing  43/coordinate 3 (-)>>>
             <<<Displacing  44/coordinate 1 (-)>>>
             <<<Displacing  44/coordinate 2 (+)>>>
             <<<Displacing  44/coordinate 3 (+)>>>
             <<<Displacing  44/coordinate 2 (-)>>>
             <<<Displacing  44/coordinate 3 (-)>>>
             <<<Displacing  45/coordinate 1 (+)>>>
             <<<Displacing  45/coordinate 2 (+)>>>
             <<<Displacing  45/coordinate 1 (-)>>>
             <<<Displacing  45/coordinate 3 (+)>>>
             <<<Displacing  46/coordinate 1 (+)>>>
             <<<Displacing  46/coordinate 2 (+)>>>
             <<<Displacing  45/coordinate 2 (-)>>>
             <<<Displacing  46/coordinate 3 (+)>>>
             <<<Displacing  46/coordinate 1 (-)>>>
             <<<Displacing  45/coordinate 3 (-)>>>
             <<<Displacing  46/coordinate 2 (-)>>>
             <<<Displacing  46/coordinate 3 (-)>>>
             <<<Displacing  47/coordinate 1 (+)>>>
             <<<Displacing  47/coordinate 1 (-)>>>
             <<<Displacing  47/coordinate 2 (+)>>>
             <<<Displacing  47/coordinate 2 (-)>>>
             <<<Displacing  47/coordinate 3 (+)>>>
             <<<Displacing  48/coordinate 1 (+)>>>
             <<<Displacing  48/coordinate 1 (-)>>>
             <<<Displacing  48/coordinate 2 (+)>>>
             <<<Displacing  47/coordinate 3 (-)>>>
             <<<Displacing  48/coordinate 2 (-)>>>
             <<<Displacing  48/coordinate 3 (+)>>>
             <<<Displacing  49/coordinate 1 (+)>>>
             <<<Displacing  49/coordinate 2 (+)>>>
             <<<Displacing  49/coordinate 3 (+)>>>
             <<<Displacing  48/coordinate 3 (-)>>>
             <<<Displacing  50/coordinate 1 (+)>>>
             <<<Displacing  49/coordinate 1 (-)>>>
             <<<Displacing  49/coordinate 2 (-)>>>
             <<<Displacing  49/coordinate 3 (-)>>>
             <<<Displacing  50/coordinate 1 (-)>>>
             <<<Displacing  50/coordinate 2 (+)>>>
             <<<Displacing  50/coordinate 2 (-)>>>
             <<<Displacing  50/coordinate 3 (+)>>>
             <<<Displacing  50/coordinate 3 (-)>>>
             <<<Displacing  51/coordinate 1 (+)>>>
             <<<Displacing  51/coordinate 2 (+)>>>
             <<<Displacing  51/coordinate 1 (-)>>>
             <<<Displacing  51/coordinate 3 (+)>>>
             <<<Displacing  51/coordinate 2 (-)>>>
             <<<Displacing  51/coordinate 3 (-)>>>
             <<<Displacing  52/coordinate 1 (+)>>>
             <<<Displacing  52/coordinate 2 (+)>>>
             <<<Displacing  52/coordinate 3 (+)>>>
             <<<Displacing  53/coordinate 1 (+)>>>
             <<<Displacing  52/coordinate 1 (-)>>>
             <<<Displacing  52/coordinate 2 (-)>>>
             <<<Displacing  53/coordinate 2 (+)>>>
             <<<Displacing  52/coordinate 3 (-)>>>
             <<<Displacing  53/coordinate 1 (-)>>>
             <<<Displacing  53/coordinate 2 (-)>>>
             <<<Displacing  53/coordinate 3 (+)>>>
             <<<Displacing  54/coordinate 1 (+)>>>
             <<<Displacing  53/coordinate 3 (-)>>>
             <<<Displacing  54/coordinate 1 (-)>>>
             <<<Displacing  54/coordinate 2 (+)>>>
             <<<Displacing  54/coordinate 2 (-)>>>
             <<<Displacing  54/coordinate 3 (+)>>>
             <<<Displacing  55/coordinate 1 (+)>>>
             <<<Displacing  54/coordinate 3 (-)>>>
             <<<Displacing  55/coordinate 1 (-)>>>
             <<<Displacing  55/coordinate 2 (+)>>>
             <<<Displacing  55/coordinate 3 (+)>>>
             <<<Displacing  55/coordinate 2 (-)>>>
             <<<Displacing  55/coordinate 3 (-)>>>

-----------------------
VIBRATIONAL FREQUENCIES
-----------------------

Scaling factor for frequencies =  1.000000000 (already applied!)

   0:         0.00 cm**-1
   1:         0.00 cm**-1
   2:         0.00 cm**-1
   3:         0.00 cm**-1
   4:         0.00 cm**-1
   5:         0.00 cm**-1
   6:      -256.05 cm**-1 ***imaginary mode***
   7:      -108.61 cm**-1 ***imaginary mode***
   8:       -78.14 cm**-1 ***imaginary mode***
   9:        59.05 cm**-1
  10:        64.62 cm**-1
  11:        88.85 cm**-1
  12:       103.05 cm**-1
  13:       120.17 cm**-1
  14:       130.83 cm**-1
  15:       138.52 cm**-1
  16:       142.63 cm**-1
  17:       155.66 cm**-1
  18:       164.18 cm**-1
  19:       172.42 cm**-1
  20:       175.49 cm**-1
  21:       193.38 cm**-1
  22:       197.17 cm**-1
  23:       210.89 cm**-1
  24:       223.31 cm**-1
  25:       232.78 cm**-1
  26:       244.01 cm**-1
  27:       256.75 cm**-1
  28:       265.42 cm**-1
  29:       274.92 cm**-1
  30:       284.98 cm**-1
  31:       294.02 cm**-1
  32:       308.59 cm**-1
  33:       312.64 cm**-1
  34:       317.16 cm**-1
  35:       321.15 cm**-1
  36:       331.21 cm**-1
  37:       345.26 cm**-1
  38:       350.46 cm**-1
  39:       356.15 cm**-1
  40:       365.16 cm**-1
  41:       381.94 cm**-1
  42:       390.64 cm**-1
  43:       404.68 cm**-1
  44:       422.44 cm**-1
  45:       443.91 cm**-1
  46:       457.82 cm**-1
  47:       469.63 cm**-1
  48:       485.41 cm**-1
  49:       485.53 cm**-1
  50:       496.40 cm**-1
  51:       538.48 cm**-1
  52:       580.64 cm**-1
  53:       596.15 cm**-1
  54:       625.90 cm**-1
  55:       632.57 cm**-1
  56:       743.29 cm**-1
  57:       747.34 cm**-1
  58:       814.72 cm**-1
  59:       829.60 cm**-1
  60:       849.14 cm**-1
  61:       891.52 cm**-1
  62:       916.49 cm**-1
  63:       926.91 cm**-1
  64:       951.12 cm**-1
  65:       966.40 cm**-1
  66:       970.56 cm**-1
  67:       977.41 cm**-1
  68:       979.70 cm**-1
  69:       984.85 cm**-1
  70:       989.98 cm**-1
  71:       996.45 cm**-1
  72:      1012.23 cm**-1
  73:      1030.03 cm**-1
  74:      1033.51 cm**-1
  75:      1045.92 cm**-1
  76:      1048.54 cm**-1
  77:      1055.64 cm**-1
  78:      1056.91 cm**-1
  79:      1075.31 cm**-1
  80:      1104.10 cm**-1
  81:      1108.25 cm**-1
  82:      1130.73 cm**-1
  83:      1134.94 cm**-1
  84:      1136.18 cm**-1
  85:      1142.82 cm**-1
  86:      1153.72 cm**-1
  87:      1161.74 cm**-1
  88:      1170.33 cm**-1
  89:      1175.56 cm**-1
  90:      1210.13 cm**-1
  91:      1213.36 cm**-1
  92:      1226.40 cm**-1
  93:      1228.66 cm**-1
  94:      1246.48 cm**-1
  95:      1329.69 cm**-1
  96:      1340.92 cm**-1
  97:      1345.52 cm**-1
  98:      1348.93 cm**-1
  99:      1369.00 cm**-1
 100:      1386.47 cm**-1
 101:      1396.46 cm**-1
 102:      1408.60 cm**-1
 103:      1411.26 cm**-1
 104:      1426.69 cm**-1
 105:      1429.57 cm**-1
 106:      1431.04 cm**-1
 107:      1432.11 cm**-1
 108:      1434.51 cm**-1
 109:      1445.58 cm**-1
 110:      1446.97 cm**-1
 111:      1449.00 cm**-1
 112:      1464.23 cm**-1
 113:      1466.38 cm**-1
 114:      1470.87 cm**-1
 115:      1475.71 cm**-1
 116:      1481.68 cm**-1
 117:      1483.83 cm**-1
 118:      1484.80 cm**-1
 119:      1488.06 cm**-1
 120:      1495.65 cm**-1
 121:      1499.79 cm**-1
 122:      1501.13 cm**-1
 123:      1502.09 cm**-1
 124:      1508.04 cm**-1
 125:      1511.51 cm**-1
 126:      1515.39 cm**-1
 127:      1515.80 cm**-1
 128:      1522.55 cm**-1
 129:      1524.73 cm**-1
 130:      2402.46 cm**-1
 131:      2617.99 cm**-1
 132:      2650.52 cm**-1
 133:      2764.85 cm**-1
 134:      2783.86 cm**-1
 135:      2795.46 cm**-1
 136:      2813.45 cm**-1
 137:      2840.22 cm**-1
 138:      2844.24 cm**-1
 139:      2854.52 cm**-1
 140:      2858.61 cm**-1
 141:      2860.46 cm**-1
 142:      2873.00 cm**-1
 143:      2875.26 cm**-1
 144:      2889.78 cm**-1
 145:      2893.48 cm**-1
 146:      2898.01 cm**-1
 147:      2920.72 cm**-1
 148:      2927.54 cm**-1
 149:      2928.91 cm**-1
 150:      2935.57 cm**-1
 151:      2936.48 cm**-1
 152:      2943.19 cm**-1
 153:      2944.84 cm**-1
 154:      2946.60 cm**-1
 155:      2946.75 cm**-1
 156:      2948.80 cm**-1
 157:      2951.74 cm**-1
 158:      2954.84 cm**-1
 159:      2960.01 cm**-1
 160:      2962.54 cm**-1
 161:      2964.52 cm**-1
 162:      2966.90 cm**-1
 163:      2983.14 cm**-1
 164:      2991.28 cm**-1


------------
NORMAL MODES
------------

These modes are the cartesian displacements weighted by the diagonal matrix
M(i,i)=1/sqrt(m[i]) where m[i] is the mass of the displaced atom
Thus, these vectors are normalized but *not* orthogonal

                  0          1          2          3          4          5    
      0       0.000000   0.000000   0.000000   0.000000   0.000000   0.000000
      1       0.000000   0.000000   0.000000   0.000000   0.000000   0.000000
      2       0.000000   0.000000   0.000000   0.000000   0.000000   0.000000
      3       0.000000   0.000000   0.000000   0.000000   0.000000   0.000000
      4       0.000000   0.000000   0.000000   0.000000   0.000000   0.000000
      5       0.000000   0.000000   0.000000   0.000000   0.000000   0.000000
      6       0.000000   0.000000   0.000000   0.000000   0.000000   0.000000
      7       0.000000   0.000000   0.000000   0.000000   0.000000   0.000000
      8       0.000000   0.000000   0.000000   0.000000   0.000000   0.000000
      9       0.000000   0.000000   0.000000   0.000000   0.000000   0.000000
     10       0.000000   0.000000   0.000000   0.000000   0.000000   0.000000
     11       0.000000   0.000000   0.000000   0.000000   0.000000   0.000000
     12       0.000000   0.000000   0.000000   0.000000   0.000000   0.000000
     13       0.000000   0.000000   0.000000   0.000000   0.000000   0.000000
     14       0.000000   0.000000   0.000000   0.000000   0.000000   0.000000
     15       0.000000   0.000000   0.000000   0.000000   0.000000   0.000000
     16       0.000000   0.000000   0.000000   0.000000   0.000000   0.000000
     17       0.000000   0.000000   0.000000   0.000000   0.000000   0.000000
     18       0.000000   0.000000   0.000000   0.000000   0.000000   0.000000
     19       0.000000   0.000000   0.000000   0.000000   0.000000   0.000000
     20       0.000000   0.000000   0.000000   0.000000   0.000000   0.000000
     21       0.000000   0.000000   0.000000   0.000000   0.000000   0.000000
     22       0.000000   0.000000   0.000000   0.000000   0.000000   0.000000
     23       0.000000   0.000000   0.000000   0.000000   0.000000   0.000000
     24       0.000000   0.000000   0.000000   0.000000   0.000000   0.000000
     25       0.000000   0.000000   0.000000   0.000000   0.000000   0.000000
     26       0.000000   0.000000   0.000000   0.000000   0.000000   0.000000
     27       0.000000   0.000000   0.000000   0.000000   0.000000   0.000000
     28       0.000000   0.000000   0.000000   0.000000   0.000000   0.000000
     29       0.000000   0.000000   0.000000   0.000000   0.000000   0.000000
     30       0.000000   0.000000   0.000000   0.000000   0.000000   0.000000
     31       0.000000   0.000000   0.000000   0.000000   0.000000   0.000000
     32       0.000000   0.000000   0.000000   0.000000   0.000000   0.000000
     33       0.000000   0.000000   0.000000   0.000000   0.000000   0.000000
     34       0.000000   0.000000   0.000000   0.000000   0.000000   0.000000
     35       0.000000   0.000000   0.000000   0.000000   0.000000   0.000000
     36       0.000000   0.000000   0.000000   0.000000   0.000000   0.000000
     37       0.000000   0.000000   0.000000   0.000000   0.000000   0.000000
     38       0.000000   0.000000   0.000000   0.000000   0.000000   0.000000
     39       0.000000   0.000000   0.000000   0.000000   0.000000   0.000000
     40       0.000000   0.000000   0.000000   0.000000   0.000000   0.000000
     41       0.000000   0.000000   0.000000   0.000000   0.000000   0.000000
     42       0.000000   0.000000   0.000000   0.000000   0.000000   0.000000
     43       0.000000   0.000000   0.000000   0.000000   0.000000   0.000000
     44       0.000000   0.000000   0.000000   0.000000   0.000000   0.000000
     45       0.000000   0.000000   0.000000   0.000000   0.000000   0.000000
     46       0.000000   0.000000   0.000000   0.000000   0.000000   0.000000
     47       0.000000   0.000000   0.000000   0.000000   0.000000   0.000000
     48       0.000000   0.000000   0.000000   0.000000   0.000000   0.000000
     49       0.000000   0.000000   0.000000   0.000000   0.000000   0.000000
     50       0.000000   0.000000   0.000000   0.000000   0.000000   0.000000
     51       0.000000   0.000000   0.000000   0.000000   0.000000   0.000000
     52       0.000000   0.000000   0.000000   0.000000   0.000000   0.000000
     53       0.000000   0.000000   0.000000   0.000000   0.000000   0.000000
     54       0.000000   0.000000   0.000000   0.000000   0.000000   0.000000
     55       0.000000   0.000000   0.000000   0.000000   0.000000   0.000000
     56       0.000000   0.000000   0.000000   0.000000   0.000000   0.000000
     57       0.000000   0.000000   0.000000   0.000000   0.000000   0.000000
     58       0.000000   0.000000   0.000000   0.000000   0.000000   0.000000
     59       0.000000   0.000000   0.000000   0.000000   0.000000   0.000000
     60       0.000000   0.000000   0.000000   0.000000   0.000000   0.000000
     61       0.000000   0.000000   0.000000   0.000000   0.000000   0.000000
     62       0.000000   0.000000   0.000000   0.000000   0.000000   0.000000
     63       0.000000   0.000000   0.000000   0.000000   0.000000   0.000000
     64       0.000000   0.000000   0.000000   0.000000   0.000000   0.000000
     65       0.000000   0.000000   0.000000   0.000000   0.000000   0.000000
     66       0.000000   0.000000   0.000000   0.000000   0.000000   0.000000
     67       0.000000   0.000000   0.000000   0.000000   0.000000   0.000000
     68       0.000000   0.000000   0.000000   0.000000   0.000000   0.000000
     69       0.000000   0.000000   0.000000   0.000000   0.000000   0.000000
     70       0.000000   0.000000   0.000000   0.000000   0.000000   0.000000
     71       0.000000   0.000000   0.000000   0.000000   0.000000   0.000000
     72       0.000000   0.000000   0.000000   0.000000   0.000000   0.000000
     73       0.000000   0.000000   0.000000   0.000000   0.000000   0.000000
     74       0.000000   0.000000   0.000000   0.000000   0.000000   0.000000
     75       0.000000   0.000000   0.000000   0.000000   0.000000   0.000000
     76       0.000000   0.000000   0.000000   0.000000   0.000000   0.000000
     77       0.000000   0.000000   0.000000   0.000000   0.000000   0.000000
     78       0.000000   0.000000   0.000000   0.000000   0.000000   0.000000
     79       0.000000   0.000000   0.000000   0.000000   0.000000   0.000000
     80       0.000000   0.000000   0.000000   0.000000   0.000000   0.000000
     81       0.000000   0.000000   0.000000   0.000000   0.000000   0.000000
     82       0.000000   0.000000   0.000000   0.000000   0.000000   0.000000
     83       0.000000   0.000000   0.000000   0.000000   0.000000   0.000000
     84       0.000000   0.000000   0.000000   0.000000   0.000000   0.000000
     85       0.000000   0.000000   0.000000   0.000000   0.000000   0.000000
     86       0.000000   0.000000   0.000000   0.000000   0.000000   0.000000
     87       0.000000   0.000000   0.000000   0.000000   0.000000   0.000000
     88       0.000000   0.000000   0.000000   0.000000   0.000000   0.000000
     89       0.000000   0.000000   0.000000   0.000000   0.000000   0.000000
     90       0.000000   0.000000   0.000000   0.000000   0.000000   0.000000
     91       0.000000   0.000000   0.000000   0.000000   0.000000   0.000000
     92       0.000000   0.000000   0.000000   0.000000   0.000000   0.000000
     93       0.000000   0.000000   0.000000   0.000000   0.000000   0.000000
     94       0.000000   0.000000   0.000000   0.000000   0.000000   0.000000
     95       0.000000   0.000000   0.000000   0.000000   0.000000   0.000000
     96       0.000000   0.000000   0.000000   0.000000   0.000000   0.000000
     97       0.000000   0.000000   0.000000   0.000000   0.000000   0.000000
     98       0.000000   0.000000   0.000000   0.000000   0.000000   0.000000
     99       0.000000   0.000000   0.000000   0.000000   0.000000   0.000000
    100       0.000000   0.000000   0.000000   0.000000   0.000000   0.000000
    101       0.000000   0.000000   0.000000   0.000000   0.000000   0.000000
    102       0.000000   0.000000   0.000000   0.000000   0.000000   0.000000
    103       0.000000   0.000000   0.000000   0.000000   0.000000   0.000000
    104       0.000000   0.000000   0.000000   0.000000   0.000000   0.000000
    105       0.000000   0.000000   0.000000   0.000000   0.000000   0.000000
    106       0.000000   0.000000   0.000000   0.000000   0.000000   0.000000
    107       0.000000   0.000000   0.000000   0.000000   0.000000   0.000000
    108       0.000000   0.000000   0.000000   0.000000   0.000000   0.000000
    109       0.000000   0.000000   0.000000   0.000000   0.000000   0.000000
    110       0.000000   0.000000   0.000000   0.000000   0.000000   0.000000
    111       0.000000   0.000000   0.000000   0.000000   0.000000   0.000000
    112       0.000000   0.000000   0.000000   0.000000   0.000000   0.000000
    113       0.000000   0.000000   0.000000   0.000000   0.000000   0.000000
    114       0.000000   0.000000   0.000000   0.000000   0.000000   0.000000
    115       0.000000   0.000000   0.000000   0.000000   0.000000   0.000000
    116       0.000000   0.000000   0.000000   0.000000   0.000000   0.000000
    117       0.000000   0.000000   0.000000   0.000000   0.000000   0.000000
    118       0.000000   0.000000   0.000000   0.000000   0.000000   0.000000
    119       0.000000   0.000000   0.000000   0.000000   0.000000   0.000000
    120       0.000000   0.000000   0.000000   0.000000   0.000000   0.000000
    121       0.000000   0.000000   0.000000   0.000000   0.000000   0.000000
    122       0.000000   0.000000   0.000000   0.000000   0.000000   0.000000
    123       0.000000   0.000000   0.000000   0.000000   0.000000   0.000000
    124       0.000000   0.000000   0.000000   0.000000   0.000000   0.000000
    125       0.000000   0.000000   0.000000   0.000000   0.000000   0.000000
    126       0.000000   0.000000   0.000000   0.000000   0.000000   0.000000
    127       0.000000   0.000000   0.000000   0.000000   0.000000   0.000000
    128       0.000000   0.000000   0.000000   0.000000   0.000000   0.000000
    129       0.000000   0.000000   0.000000   0.000000   0.000000   0.000000
    130       0.000000   0.000000   0.000000   0.000000   0.000000   0.000000
    131       0.000000   0.000000   0.000000   0.000000   0.000000   0.000000
    132       0.000000   0.000000   0.000000   0.000000   0.000000   0.000000
    133       0.000000   0.000000   0.000000   0.000000   0.000000   0.000000
    134       0.000000   0.000000   0.000000   0.000000   0.000000   0.000000
    135       0.000000   0.000000   0.000000   0.000000   0.000000   0.000000
    136       0.000000   0.000000   0.000000   0.000000   0.000000   0.000000
    137       0.000000   0.000000   0.000000   0.000000   0.000000   0.000000
    138       0.000000   0.000000   0.000000   0.000000   0.000000   0.000000
    139       0.000000   0.000000   0.000000   0.000000   0.000000   0.000000
    140       0.000000   0.000000   0.000000   0.000000   0.000000   0.000000
    141       0.000000   0.000000   0.000000   0.000000   0.000000   0.000000
    142       0.000000   0.000000   0.000000   0.000000   0.000000   0.000000
    143       0.000000   0.000000   0.000000   0.000000   0.000000   0.000000
    144       0.000000   0.000000   0.000000   0.000000   0.000000   0.000000
    145       0.000000   0.000000   0.000000   0.000000   0.000000   0.000000
    146       0.000000   0.000000   0.000000   0.000000   0.000000   0.000000
    147       0.000000   0.000000   0.000000   0.000000   0.000000   0.000000
    148       0.000000   0.000000   0.000000   0.000000   0.000000   0.000000
    149       0.000000   0.000000   0.000000   0.000000   0.000000   0.000000
    150       0.000000   0.000000   0.000000   0.000000   0.000000   0.000000
    151       0.000000   0.000000   0.000000   0.000000   0.000000   0.000000
    152       0.000000   0.000000   0.000000   0.000000   0.000000   0.000000
    153       0.000000   0.000000   0.000000   0.000000   0.000000   0.000000
    154       0.000000   0.000000   0.000000   0.000000   0.000000   0.000000
    155       0.000000   0.000000   0.000000   0.000000   0.000000   0.000000
    156       0.000000   0.000000   0.000000   0.000000   0.000000   0.000000
    157       0.000000   0.000000   0.000000   0.000000   0.000000   0.000000
    158       0.000000   0.000000   0.000000   0.000000   0.000000   0.000000
    159       0.000000   0.000000   0.000000   0.000000   0.000000   0.000000
    160       0.000000   0.000000   0.000000   0.000000   0.000000   0.000000
    161       0.000000   0.000000   0.000000   0.000000   0.000000   0.000000
    162       0.000000   0.000000   0.000000   0.000000   0.000000   0.000000
    163       0.000000   0.000000   0.000000   0.000000   0.000000   0.000000
    164       0.000000   0.000000   0.000000   0.000000   0.000000   0.000000
                  6          7          8          9         10         11    
      0      -0.057562   0.005316   0.021914   0.021163  -0.061589  -0.088680
      1       0.012655  -0.000390  -0.000675   0.009560  -0.025180  -0.003427
      2      -0.070179   0.012155  -0.005786   0.086924   0.010095   0.080684
      3      -0.075480   0.002920   0.018370   0.040080  -0.041096  -0.060587
      4       0.171269  -0.001279  -0.000802   0.041952  -0.027333   0.033019
      5      -0.071822   0.011896  -0.006091   0.085642   0.009367   0.078891
      6      -0.052462   0.006059   0.022205   0.018043  -0.065285  -0.094213
      7       0.017874  -0.000940  -0.000815   0.008568  -0.025793  -0.002933
      8      -0.059434   0.014261  -0.004829   0.080310   0.001652   0.065861
      9      -0.071862   0.004316   0.021675   0.002797  -0.065155  -0.107764
     10      -0.008647  -0.001703  -0.001198  -0.008956  -0.025588  -0.021094
     11      -0.098302   0.010442  -0.006635   0.069072   0.013824   0.065174
     12      -0.034444   0.006960   0.022249   0.031562  -0.067315  -0.087740
     13      -0.011990  -0.002345  -0.001919  -0.013082  -0.025074  -0.023172
     14      -0.050675   0.012960  -0.003697   0.114045   0.016871   0.113400
     15       0.020949  -0.000106  -0.003188  -0.027962   0.017744   0.006272
     16       0.017837  -0.004345  -0.005539   0.010715   0.002241   0.028983
     17       0.007308   0.002479  -0.002127   0.004394  -0.003588  -0.013810
     18      -0.152718   0.000950   0.012702   0.083694  -0.032508  -0.047843
     19       0.264326  -0.003236  -0.008201  -0.021367  -0.006572   0.038988
     20      -0.186185   0.016025   0.005978   0.063482  -0.007802   0.053754
     21      -0.082228   0.002155   0.015786   0.055649  -0.036587  -0.050891
     22       0.028296  -0.004876   0.012080   0.099882  -0.046926   0.018127
     23      -0.062929   0.012059  -0.016612   0.107309   0.021749   0.097117
     24       0.071959   0.015985  -0.006845   0.008919   0.034037   0.029150
     25      -0.466232  -0.004602  -0.011421  -0.061185   0.028569   0.004400
     26       0.154099  -0.011181   0.004274   0.003001  -0.030265  -0.024121
     27       0.020917  -0.005340   0.000856  -0.019641   0.021678   0.037355
     28       0.007221  -0.003865  -0.007328  -0.003076  -0.003059  -0.006959
     29       0.022882   0.005824   0.006636  -0.008722   0.006494  -0.058186
     30      -0.001007  -0.005329  -0.009175  -0.056689   0.055687   0.013728
     31       0.003870   0.001946  -0.013876  -0.009399  -0.034681   0.008365
     32       0.000955  -0.003823  -0.008770  -0.051108   0.047666   0.014711
     33       0.007196   0.001833  -0.002056  -0.082335  -0.030388   0.005608
     34       0.002714   0.063538   0.015231   0.035947   0.059211  -0.010926
     35      -0.001024  -0.012362  -0.005671  -0.064143  -0.061925   0.024208
     36       0.061044   0.031289  -0.011027   0.018405   0.047346   0.052236
     37      -0.414963  -0.003044  -0.007344  -0.057322   0.018482  -0.023384
     38       0.141760  -0.006566   0.002266   0.005765  -0.024225  -0.012526
     39       0.062136   0.013218  -0.003603   0.018047   0.028802   0.019627
     40      -0.385132  -0.005522  -0.022895  -0.117727   0.042114   0.033838
     41       0.148685  -0.028896   0.010856   0.014516  -0.045751  -0.055594
     42       0.014268  -0.001955   0.000193   0.016357   0.045463   0.056832
     43       0.010171  -0.012728  -0.014035  -0.044185  -0.006384  -0.062037
     44       0.017551   0.008659   0.011107  -0.002645   0.002415  -0.048829
     45      -0.008489  -0.007609  -0.000028  -0.017945  -0.002572   0.034492
     46      -0.005754   0.000356  -0.007119   0.013282  -0.007636   0.022063
     47       0.017937   0.007782   0.005399   0.003720   0.004979  -0.040574
     48       0.009798   0.036541  -0.018597  -0.004796   0.032878   0.133976
     49       0.001761  -0.021757  -0.006873  -0.078337  -0.019300  -0.110381
     50       0.009582  -0.006276   0.020562  -0.038652  -0.010106  -0.110927
     51       0.007218  -0.020641   0.012588   0.059029   0.108738  -0.021096
     52       0.003245  -0.055186   0.002032  -0.019734   0.036932  -0.175757
     53       0.013100   0.052266   0.007491   0.031182   0.048110  -0.007743
     54       0.013348  -0.018637   0.015579   0.036069   0.053005   0.014702
     55       0.006988   0.019839  -0.046082  -0.086390  -0.032552   0.024426
     56       0.014780  -0.008613   0.024284   0.002420  -0.036659  -0.026660
     57       0.005928   0.037504  -0.012590  -0.029574   0.011707   0.133118
     58      -0.000471  -0.012955  -0.005046  -0.090996  -0.036280  -0.087198
     59      -0.000122  -0.028269   0.040625  -0.085082  -0.029264  -0.181920
     60       0.011934   0.050460  -0.033606   0.031633   0.057387   0.176025
     61      -0.006691  -0.026727   0.002636  -0.117966  -0.038696  -0.148726
     62       0.012078  -0.007746   0.020459  -0.031450  -0.008380  -0.105484
     63       0.007657   0.038416  -0.018045  -0.020201   0.020306   0.134370
     64       0.004622  -0.024176  -0.008587  -0.050998   0.003601  -0.112101
     65       0.004440   0.005300   0.012128  -0.032243  -0.005334  -0.086297
     66      -0.000320   0.097784   0.031997   0.057899   0.083061   0.000412
     67       0.001606   0.069820   0.021738  -0.074735  -0.088968  -0.119106
     68       0.014863  -0.005730  -0.001732   0.046831   0.088517  -0.027989
     69       0.005998  -0.178197   0.005669   0.107610   0.230927  -0.158682
     70       0.004557  -0.124010  -0.009189   0.008468   0.108739  -0.207246
     71       0.014880  -0.040844  -0.009029   0.070513   0.147672  -0.044146
     72       0.009948   0.019349   0.010863   0.039460   0.065453   0.036455
     73      -0.002629  -0.142864   0.004360   0.021410   0.129591  -0.294139
     74       0.007458   0.239681   0.035969  -0.003667  -0.047922   0.053303
     75       0.012944  -0.048004   0.052838   0.063962   0.046929  -0.033972
     76       0.005579   0.037217  -0.082362  -0.096836  -0.056381   0.038010
     77       0.011689   0.028682  -0.050051  -0.020883  -0.083335   0.005936
     78       0.016392   0.008527  -0.029110   0.025186   0.059571   0.006234
     79       0.008672  -0.008635   0.020237  -0.074749   0.010501   0.015278
     80       0.012861  -0.016029   0.033364   0.005540  -0.047243  -0.021097
     81       0.009625  -0.024726   0.027541   0.029018   0.045493   0.046746
     82       0.002415   0.051292  -0.105454  -0.115435  -0.059284   0.075753
     83       0.015111  -0.052382   0.108211   0.026715  -0.013609  -0.045742
     84      -0.003445  -0.013493   0.010159   0.009345  -0.105397   0.005123
     85      -0.005208   0.001201  -0.007333   0.014164  -0.008876   0.026684
     86       0.008530   0.013137  -0.000015   0.024102   0.010526   0.000698
     87      -0.025418  -0.010120  -0.008646  -0.038849   0.048402   0.038551
     88      -0.029183   0.002106  -0.008588   0.021185  -0.012265   0.036191
     89       0.026697   0.006828   0.005706   0.000873   0.003097  -0.049889
     90      -0.001928  -0.018258   0.008933   0.020838  -0.149824  -0.013285
     91      -0.011199   0.004395  -0.016970   0.003380   0.081327   0.076394
     92       0.006677   0.007928  -0.008231   0.034616  -0.000563   0.004456
     93      -0.000436  -0.016244   0.011019   0.019659  -0.144586  -0.009477
     94       0.001101  -0.001860  -0.001313   0.044709  -0.096497   0.011757
     95       0.008148   0.015901   0.002582   0.026491   0.026854   0.020464
     96      -0.000647  -0.010512   0.018839   0.010633  -0.124888   0.002442
     97      -0.004805   0.000602  -0.004927   0.000435  -0.011470   0.006677
     98       0.008353   0.016238  -0.000892   0.030088   0.011051   0.013215
     99      -0.002100  -0.023029   0.003352   0.026285  -0.161103  -0.010887
    100      -0.019144   0.003616  -0.020663   0.000682   0.113793   0.087753
    101       0.008550   0.008625  -0.006805   0.034841  -0.008576   0.001168
    102      -0.002615  -0.020159   0.013777   0.028923  -0.199800  -0.044143
    103      -0.010937   0.004536  -0.017143   0.002864   0.083475   0.077877
    104      -0.000167   0.007195  -0.012718   0.032820   0.034677   0.019680
    105      -0.001959  -0.016085   0.009738   0.015081  -0.121167   0.000309
    106      -0.008463   0.006048  -0.018570  -0.003430   0.112253   0.097708
    107       0.009984   0.004046  -0.011310   0.041440  -0.036949  -0.005374
    108      -0.001512  -0.016735   0.007954   0.016301  -0.138677  -0.012419
    109       0.001429  -0.002835  -0.001817   0.057675  -0.112531   0.020812
    110       0.007970   0.016350   0.003141   0.022882   0.030893   0.018024
    111      -0.002914  -0.015541   0.010297   0.012669  -0.114061   0.001447
    112       0.005665  -0.003470   0.002663   0.051928  -0.139948  -0.008794
    113       0.007749   0.016323   0.004207   0.020880   0.042724   0.023030
    114       0.004456  -0.018671   0.015628   0.037407  -0.206675  -0.026706
    115       0.001326  -0.001921  -0.001110   0.045309  -0.099180   0.010854
    116       0.007834   0.015393   0.001666   0.038263   0.017909   0.032852
    117      -0.017578  -0.006901  -0.016145  -0.043055   0.054379   0.031790
    118      -0.023786   0.004673  -0.015725   0.015850  -0.006067   0.033515
    119       0.026146   0.004772   0.001145  -0.008951   0.022402  -0.051829
    120      -0.021701  -0.009710  -0.011881  -0.041028   0.055827   0.038777
    121      -0.047797  -0.000660  -0.000800   0.022721  -0.019082   0.038279
    122       0.044997   0.010998   0.008825   0.011469  -0.033446  -0.060159
    123      -0.041055  -0.014737  -0.006097  -0.045402   0.070791   0.047928
    124      -0.038491   0.003303  -0.011186   0.023600  -0.009909   0.042464
    125       0.014881   0.006422   0.004461   0.000741   0.011253  -0.042545
    126       0.003159   0.009254  -0.061651   0.000105   0.039498  -0.013582
    127       0.002913  -0.025081   0.132476   0.009123  -0.063394   0.047556
    128      -0.002648  -0.012177  -0.011319  -0.162924   0.093978   0.037949
    129       0.006711   0.071191  -0.283711   0.150420  -0.081337  -0.112164
    130      -0.004534  -0.107578   0.489052  -0.046422   0.008544   0.164244
    131      -0.011753  -0.093029   0.325882  -0.247961   0.182659   0.154894
    132      -0.003114  -0.021117   0.047410  -0.088951   0.091374   0.036698
    133       0.013306   0.077208  -0.281429   0.115158  -0.207396  -0.101228
    134      -0.010102  -0.054818   0.144777  -0.275676   0.164947   0.107540
    135      -0.002924  -0.008247  -0.000671  -0.013917   0.095051   0.008160
    136      -0.001020  -0.067902   0.313298  -0.025203  -0.017419   0.108387
    137       0.007423   0.102694  -0.494772  -0.073981  -0.022373  -0.126100
    138       0.016714   0.044664   0.023059  -0.051211   0.021949  -0.110356
    139       0.000042   0.070199   0.032666   0.061883   0.111933  -0.134286
    140      -0.038619  -0.121884  -0.035198  -0.098537  -0.080306   0.044223
    141      -0.018963   0.183185   0.046937  -0.196992  -0.096911  -0.063025
    142      -0.014275   0.434383   0.124637  -0.111852  -0.005130  -0.211057
    143      -0.081490   0.090499   0.005702  -0.291134  -0.233460   0.086697
    144       0.005238   0.196350   0.073352  -0.106613   0.011106  -0.237928
    145       0.003635   0.039936   0.019459   0.069161   0.104864  -0.082712
    146      -0.005207  -0.607602  -0.137375   0.193171   0.158951  -0.003634
    147       0.072295  -0.193303  -0.023994   0.170850   0.190709  -0.142925
    148       0.009320  -0.252318  -0.029663   0.251289   0.284256  -0.216747
    149      -0.065441   0.027911  -0.005851  -0.218958  -0.176929   0.072013
    150      -0.008486  -0.006367   0.000532   0.157766  -0.023327  -0.024882
    151      -0.034206  -0.010664  -0.010939  -0.008640  -0.000597  -0.007123
    152      -0.003020   0.019055   0.005832   0.070536  -0.009526   0.085292
    153      -0.084701   0.000862   0.018828   0.077981  -0.048500  -0.061272
    154       0.111289   0.002079  -0.011410  -0.063649   0.017027   0.062782
    155      -0.102499   0.018101   0.016737   0.038659  -0.030390   0.036638
    156       0.041138  -0.008167  -0.004181   0.175296  -0.015497  -0.011302
    157      -0.197124  -0.009289  -0.010375  -0.051802   0.013054  -0.020451
    158      -0.067565   0.021445   0.012227   0.048331  -0.020508   0.067149
[...]
   
   for metadynamics refer to:
   * S. Grimme, J. Chem. Theory Comput., 2019, 155, 2847-2862
     DOI: 10.1021/acs.jctc.9b00143
   
   with help from (in alphabetical order)
   C. Bannwarth, F. Bohle, G. Brandenburg, E. Caldeweyher, M. Checinski,
   S. Dohm, S. Ehlert, S. Ehrlich, F. März, H. Neugebauer, J. Pisarek,
   P. Pracht, P. Shushkov, and S. Spicher.
   
 * started run on 2020/09/11 at 11:12:22.435     

           -------------------------------------------------
          |                Calculation Setup                |
           -------------------------------------------------

          program call               : /cluster/projects/nn2506k/marcof/tools/orca_4_2_1_linux_x86-64_openmpi314/otool_xtb cli4-mol_job2_XTB.xyz --grad -c 0 -u 0 -P 10 --namespace cli4-mol_job2
          hostname                   : c52-2
          calculation namespace      : cli4-mol_job2
          coordinate file            : cli4-mol_job2_XTB.xyz
          omp threads                :                    10
          number of atoms            :                    55
          number of electrons        :                   124
          charge                     :                     0
          spin                       :                   0.0
          first test random number   :      0.47095140397123


molecular fragmentation (1/2 indicates fragments):
1111111111111111111112111111111111111111111111111111111
# atoms in fragment 1/2:    54     1
 fragment masses (1/2) :      373.51        1.01
CMA distance (Bohr)    :   4.799
constraining FC (au)   :  0.0500

########################################################################
# WARNING! Please study the warnings concerning your input carefully
#  - XTBHOME is not set, using HOME instead
#  - Process number higher than OMP_NUM_THREADS, I hope you know what you are doing.
########################################################################

           ------------------------------------------------- 
          |                 G F N 2 - x T B                 |
          | Geometry, Frequencies, Noncovalent interactions |
          |            JCTC 2019 parametrisation            |
           ------------------------------------------------- 
             k(s)              :                1.8500
             k(p)              :                2.2300
             k(d)              :                2.2300
             k(f)              :                2.0000
             kEN (H0ij)        :               -2.0000
             D4 a1             :                0.5200
             D4 a2             :                5.0000
             D4 s6             :                1.0000
             D4 s8             :                2.7000
             D4 s9             :                5.0000
             alphaj            :                2.0000

  Z AO/shell   Hii/eV     exponent
  1     Wed Apr 25 08:07:45 CEST 2018   EN: 2.200 GM2: 0.406  GM3: 0.0800  RAES: 1.40
     1s    -10.707211    1.230000
  6     Wed Apr 25 08:07:45 CEST 2018   EN: 2.550 GM2: 0.538  GM3: 0.1500  RAES: 3.00
     2s    -13.970922    2.096432
     2p    -10.063292    1.800000
  7     Wed Apr 25 08:07:45 CEST 2018   EN: 3.040 GM2: 0.461  GM3:-0.0640  RAES: 1.90
     2s    -16.686243    2.339881
     2p    -12.523956    2.014332
  8     Wed Apr 25 08:07:45 CEST 2018   EN: 3.440 GM2: 0.452  GM3:-0.0517  RAES: 1.80
     2s    -20.229985    2.439742
     2p    -15.503117    2.137023
 44     Wed Apr 25 22:11:15 CEST 2018   EN: 2.200 GM2: 0.711  GM3:-0.0500  RAES: 5.00
     4d    -10.285405    2.102697
     5s     -5.332608    1.749643
     5p     -3.307153    1.348322

           ------------------------------------------------- 
          |        Self-Consistent Charge Iterations        |
           ------------------------------------------------- 

          ...................................................
          :                      SETUP                      :
          :.................................................:
          :  # basis functions                 121          :
          :  # atomic orbitals                 120          :
          :  # shells                           76          :
          :  # electrons                       124          :
          :  max. iterations                   250          :
          :  Hamiltonian                  GFN2-xTB          :
          :  restarted?                      false          :
          :  GBSA solvation                  false          :
          :  PC potential                    false          :
          :  electronic temp.          300.0000000     K    :
          :  accuracy                    1.0000000          :
          :  -> integral cutoff          0.2500000E+02      :
          :  -> integral neglect         0.1000000E-07      :
          :  -> SCF convergence          0.1000000E-05 Eh   :
          :  -> wf. convergence          0.1000000E-03 e    :
          :  Broyden damping             0.4000000          :
          ...................................................

 iter      E             dE          RMSdq      gap      omega  full diag
   1    -64.5437704 -0.645438E+02  0.715E+00    1.68       0.0  T
   2    -59.6664747  0.487730E+01  0.114E+01    4.43       1.0  T
   3    -66.6380698 -0.697160E+01  0.336E+00    1.59       1.0  T
   4    -66.9674289 -0.329359E+00  0.262E+00    1.84       1.0  T
   5    -67.0220937 -0.546648E-01  0.164E+00    1.44       1.0  T
   6    -67.0714040 -0.493103E-01  0.622E-01    1.01       1.0  T
   7    -67.0742598 -0.285575E-02  0.589E-01    1.33       1.0  T
   8    -67.0830205 -0.876075E-02  0.256E-01    1.24       1.0  T
   9    -67.0855848 -0.256426E-02  0.971E-02    1.16       1.0  T
  10    -67.0858854 -0.300580E-03  0.530E-02    1.18       1.0  T
  11    -67.0859050 -0.196429E-04  0.190E-02    1.17       1.0  T
  12    -67.0859046  0.413800E-06  0.149E-02    1.17       1.0  T
  13    -67.0859087 -0.408434E-05  0.607E-03    1.17       2.2  T
  14    -67.0859097 -0.101085E-05  0.228E-03    1.17       5.9  T
  15    -67.0859097 -0.239073E-07  0.153E-03    1.17       8.8  T
  16    -67.0859098 -0.334182E-07  0.519E-04    1.17      26.0  T
  17    -67.0859098 -0.380815E-08  0.306E-04    1.17      44.1  T

   *** convergence criteria satisfied after 17 iterations ***

         #    Occupation            Energy/Eh            Energy/eV
      -------------------------------------------------------------
         1        2.0000           -0.6727038             -18.3052
       ...           ...                  ...                  ...
        56        2.0000           -0.3548547              -9.6561
        57        2.0000           -0.3521742              -9.5831
        58        2.0000           -0.3437247              -9.3532
        59        2.0000           -0.3368280              -9.1656
        60        2.0000           -0.3310396              -9.0080
        61        2.0000           -0.3094261              -8.4199
        62        2.0000           -0.3036438              -8.2626 (HOMO)
        63                         -0.2605770              -7.0907 (LUMO)
        64                         -0.2359084              -6.4194
        65                         -0.2139628              -5.8222
        66                         -0.1798898              -4.8951
        67                         -0.1758919              -4.7863
       ...                                ...                  ...
       120                          2.4309418              66.1493
      -------------------------------------------------------------
                  HL-Gap            0.0430667 Eh            1.1719 eV
             Fermi-level           -0.2821093 Eh           -7.6766 eV

 SCC (total)                   0 d,  0 h,  0 min,  0.094 sec
 SCC setup                      ...        0 min,  0.001 sec (  0.815%)
 Dispersion                     ...        0 min,  0.001 sec (  1.099%)
 integral evaluation            ...        0 min,  0.008 sec (  8.970%)
 zeroth order Hamiltonian       ...        0 min,  0.001 sec (  0.567%)
 iterations                     ...        0 min,  0.070 sec ( 74.609%)
 molecular gradient             ...        0 min,  0.011 sec ( 11.410%)
 printout                       ...        0 min,  0.002 sec (  2.401%)

         :::::::::::::::::::::::::::::::::::::::::::::::::::::
         ::                     SUMMARY                     ::
         :::::::::::::::::::::::::::::::::::::::::::::::::::::
         :: total energy             -66.259516739075 Eh    ::
         :: gradient norm              0.015530255195 Eh/a0 ::
         :: HOMO-LUMO gap              1.171905453316 eV    ::
         ::.................................................::
         :: SCC energy               -67.085909759474 Eh    ::
         :: -> isotropic ES            0.103766469478 Eh    ::
         :: -> anisotropic ES          0.004803207053 Eh    ::
         :: -> anisotropic XC          0.026765770839 Eh    ::
         :: -> dispersion             -0.062340862888 Eh    ::
         :: repulsion energy           0.824075282309 Eh    ::
         :: add. restraining           0.000000000000 Eh    ::
         :::::::::::::::::::::::::::::::::::::::::::::::::::::

           -------------------------------------------------
          |                Property Printout                |
           -------------------------------------------------

    * Orbital Energies and Occupations

         #    Occupation            Energy/Eh            Energy/eV
      -------------------------------------------------------------
         1        2.0000           -0.6727038             -18.3052
       ...           ...                  ...                  ...
        50        2.0000           -0.4273246             -11.6281
        51        2.0000           -0.4241230             -11.5410
        52        2.0000           -0.4190821             -11.4038
        53        2.0000           -0.4058676             -11.0442
        54        2.0000           -0.3851738             -10.4811
        55        2.0000           -0.3781867             -10.2910
        56        2.0000           -0.3548547              -9.6561
        57        2.0000           -0.3521742              -9.5831
        58        2.0000           -0.3437247              -9.3532
        59        2.0000           -0.3368280              -9.1656
        60        2.0000           -0.3310396              -9.0080
        61        2.0000           -0.3094261              -8.4199
        62        2.0000           -0.3036438              -8.2626 (HOMO)
        63                         -0.2605770              -7.0907 (LUMO)
        64                         -0.2359084              -6.4194
        65                         -0.2139628              -5.8222
        66                         -0.1798898              -4.8951
        67                         -0.1758919              -4.7863
        68                         -0.0091655              -0.2494
        69                          0.0437862               1.1915
        70                          0.0655084               1.7826
        71                          0.0749367               2.0391
        72                          0.0758302               2.0634
        73                          0.0917447               2.4965
       ...                                ...                  ...
       120                          2.4309418              66.1493
      -------------------------------------------------------------
                  HL-Gap            0.0430667 Eh            1.1719 eV
             Fermi-level           -0.2821093 Eh           -7.6766 eV

     #   Z        covCN         q      C6AA      α(0)
     1   6 C      3.757    -0.105    22.552     6.771
     2   6 C      3.703     0.007    20.614     6.491
     3   1 H      0.924     0.106     1.729     2.056
     4   1 H      0.924     0.041     2.440     2.443
     5   1 H      0.925     0.042     2.429     2.437
     6  44 Ru     4.988    -0.089   319.677    37.873
     7   6 C      3.450     0.025    22.593     7.188
     8   1 H      0.924     0.072     2.067     2.249
     9   6 C      2.790    -0.065    29.603     8.912
    10   6 C      2.845     0.027    27.401     8.579
    11   8 O      1.513    -0.515    23.340     6.516
    12   8 O      1.524    -0.510    23.203     6.497
    13   1 H      0.924     0.065     2.139     2.287
    14   1 H      0.924     0.061     2.182     2.310
    15   6 C      3.960     0.039    19.857     6.332
    16   7 N      2.743     0.003    21.219     6.842
    17   6 C      4.049    -0.100    22.328     6.712
    18   6 C      3.758    -0.105    22.563     6.772
    19   6 C      3.757    -0.105    22.551     6.771
    20   1 H      0.986     0.105     1.734     2.057
    21   1 H      0.924     0.035     2.516     2.481
    22   1 H      0.924     0.113     1.674     2.023
    23   1 H      0.925     0.039     2.458     2.452
    24   1 H      0.925     0.029     2.602     2.523
    25   1 H      0.925     0.067     2.115     2.274
    26   1 H      0.925     0.034     2.532     2.489
    27   1 H      0.925     0.037     2.484     2.465
    28   1 H      0.925     0.043     2.413     2.429
    29   6 C      3.793     0.032    20.046     6.376
    30   6 C      3.713    -0.073    22.041     6.708
    31   6 C      3.753    -0.114    22.742     6.800
    32   6 C      3.754    -0.116    22.777     6.805
    33   1 H      0.925     0.062     2.178     2.308
    34   1 H      0.925     0.045     2.380     2.413
    35   1 H      0.925     0.045     2.380     2.412
    36   1 H      0.925     0.050     2.314     2.379
    37   1 H      0.925     0.049     2.334     2.389
    38   1 H      0.925     0.049     2.326     2.385
    39   1 H      0.925     0.047     2.356     2.400
    40   1 H      0.924     0.122     1.596     1.976
    41   1 H      0.924     0.075     2.031     2.229
    42   1 H      0.925     0.068     2.113     2.273
    43   6 C      3.624     0.110    19.187     6.313
    44   1 H      0.921    -0.030     3.627     2.978
    45   1 H      0.923    -0.002     3.089     2.749
    46   1 H      0.922    -0.025     3.539     2.942
    47   6 C      3.624     0.102    19.311     6.333
    48   1 H      0.922    -0.007     3.176     2.787
    49   1 H      0.922    -0.017     3.371     2.871
    50   1 H      0.922    -0.019     3.403     2.885
    51   6 C      3.754    -0.113    22.729     6.798
    52   1 H      0.925     0.065     2.140     2.288
    53   1 H      0.925     0.044     2.398     2.422
    54   1 H      0.924     0.047     2.356     2.400
    55   1 H      0.924     0.109     1.705     2.042

 Mol. C6AA /au·bohr⁶  :      25907.641219
 Mol. C8AA /au·bohr⁸  :     694247.844874
 Mol. α(0) /au        :        252.892683


Wiberg/Mayer (AO) data.
largest (>0.10) Wiberg bond orders for each atom
          total WBO             WBO to atom ...
     1  C   3.991        C    2 1.005    H    5 0.980    H    4 0.965    H    3 0.939
     2  C   3.992        C    7 1.452    C    1 1.005    H    8 0.907    Ru   6 0.542
     3  H   0.988        C    1 0.939
     4  H   0.998        C    1 0.965
     5  H   0.998        C    1 0.980
     6  Ru  6.138        C    9 1.644    C   10 1.198    O   12 0.678    O   11 0.657    C    2 0.542    C    7 0.218    N   16 0.166    C   17 0.146
     7  C   3.983        C    2 1.452    C   51 1.021    H   52 0.940    C    9 0.264    Ru   6 0.218
     8  H   0.994        C    2 0.907
     9  C   3.869        Ru   6 1.644    H   13 0.918    H   14 0.912    C    7 0.264
    10  C   3.815        N   16 1.424    Ru   6 1.198    C   15 0.962
    11  O   1.945        C   43 1.063    Ru   6 0.657
    12  O   1.961        C   47 1.057    Ru   6 0.678
    13  H   0.995        C    9 0.918
    14  H   0.996        C    9 0.912
    15  C   3.991        C   19 0.981    C   18 0.977    C   17 0.973    C   10 0.962
    16  N   3.618        C   10 1.424    C   30 0.979    C   29 0.955    Ru   6 0.166
    17  C   3.993        H   21 0.979    C   15 0.973    H   22 0.928    H   20 0.871    Ru   6 0.146
    18  C   3.992        H   23 0.983    C   15 0.977    H   24 0.975    H   25 0.974
    19  C   3.994        H   27 0.982    C   15 0.981    H   28 0.979    H   26 0.979
    20  H   0.989        C   17 0.871
    21  H   0.995        C   17 0.979
    22  H   0.987        C   17 0.928
    23  H   0.998        C   18 0.983
    24  H   0.999        C   18 0.975
    25  H   0.995        C   18 0.974
    26  H   0.999        C   19 0.979
    27  H   0.998        C   19 0.982
    28  H   0.998        C   19 0.979
    29  C   3.970        C   31 0.998    C   32 0.998    N   16 0.955    H   33 0.947
    30  C   3.958        N   16 0.979    H   42 0.972    H   41 0.951    H   40 0.937
    31  C   3.988        C   29 0.998    H   35 0.984    H   36 0.984    H   34 0.981
    32  C   3.993        C   29 0.998    H   38 0.984    H   37 0.984    H   39 0.984
    33  H   0.996        C   29 0.947
    34  H   0.998        C   31 0.981
    35  H   0.997        C   31 0.984
    36  H   0.997        C   31 0.984
    37  H   0.997        C   32 0.984
    38  H   0.998        C   32 0.984
    39  H   0.996        C   32 0.984
    40  H   0.985        C   30 0.937
    41  H   0.994        C   30 0.951
    42  H   0.995        C   30 0.972
    43  C   3.986        O   11 1.063    H   45 0.961    H   44 0.952    H   46 0.949
    44  H   0.999        C   43 0.952
    45  H   0.995        C   43 0.961
    46  H   0.997        C   43 0.949
    47  C   3.987        O   12 1.057    H   48 0.963    H   50 0.962    H   49 0.947
    48  H   0.996        C   47 0.963
    49  H   0.999        C   47 0.947
    50  H   0.999        C   47 0.962
    51  C   3.988        C    7 1.021    H   53 0.986    H   54 0.963    H   55 0.945
    52  H   0.995        C    7 0.940
    53  H   0.998        C   51 0.986
    54  H   0.997        C   51 0.963
    55  H   0.988        C   51 0.945

molecular dipole:
                 x           y           z       tot (Debye)
 q only:       -0.048      -1.295       0.485
   full:       -0.293      -1.332       0.011       3.467
molecular quadrupole (traceless):
                xx          xy          yy          xz          yz          zz
 q only:      -16.307       1.474      14.619      10.733      -6.354       1.689
  q+dip:      -13.327       2.229      13.967      12.399      -6.769      -0.640
   full:      -13.040       1.708      14.356      12.144      -7.316      -1.316


           -------------------------------------------------
          | TOTAL ENERGY              -66.259516739075 Eh   |
          | GRADIENT NORM               0.015530255195 Eh/α |
          | HOMO-LUMO GAP               1.171905453316 eV   |
           -------------------------------------------------

------------------------------------------------------------------------
 * finished run on 2020/09/11 at 11:12:22.574     
------------------------------------------------------------------------
 total:
 * wall-time:     0 d,  0 h,  0 min,  0.138 sec
 *  cpu-time:     0 d,  0 h,  0 min,  1.276 sec
 * ratio c/w:     9.248 speedup
 SCF:
 * wall-time:     0 d,  0 h,  0 min,  0.095 sec
 *  cpu-time:     0 d,  0 h,  0 min,  0.919 sec
 * ratio c/w:     9.702 speedup


-------------------------   --------------------
FINAL SINGLE POINT ENERGY       -66.259516739070
-------------------------   --------------------

                                *** OPTIMIZATION RUN DONE ***

Timings for individual modules:

Sum of individual times         ...       79.073 sec (=   1.318 min)
Geometry relaxation             ...       74.397 sec (=   1.240 min)  94.1 %
XTB module                      ...        4.676 sec (=   0.078 min)   5.9 %



                             ****ORCA TERMINATED NORMALLY****
TOTAL RUN TIME: 0 days 0 hours 4 minutes 16 seconds 396 msec
