 argument  1 = meoh.nw
                                         
                                         
 
 
              Northwest Computational Chemistry Package (NWChem) 6.6
              ------------------------------------------------------
 
 
                    Environmental Molecular Sciences Laboratory
                       Pacific Northwest National Laboratory
                                Richland, WA 99352
 
                              Copyright (c) 1994-2015
                       Pacific Northwest National Laboratory
                            Battelle Memorial Institute
 
             NWChem is an open-source computational chemistry package
                        distributed under the terms of the
                      Educational Community License (ECL) 2.0
             A copy of the license is included with this distribution
                              in the LICENSE.TXT file
 
                                  ACKNOWLEDGMENT
                                  --------------

            This software and its documentation were developed at the
            EMSL at Pacific Northwest National Laboratory, a multiprogram
            national laboratory, operated for the U.S. Department of Energy
            by Battelle under Contract Number DE-AC05-76RL01830. Support
            for this work was provided by the Department of Energy Office
            of Biological and Environmental Research, Office of Basic
            Energy Sciences, and the Office of Advanced Scientific Computing.


           Job information
           ---------------

    hostname        = c55-11
    program         = nwchem
    date            = Wed May 30 15:09:15 2018

    compiled        = Wed Feb 14 12:33:38 CET 2018
    source          = /tmp/eb-1jrHGw/tmp6lcjXZ-NWChem-6.6.revision27746
    nwchem branch   = 6.6
    nwchem revision = 27746
    ga revision     = 10594
    input           = meoh.nw
    prefix          = meoh_pes.
    data base       = ./meoh_pes.db
    status          = startup
    nproc           =      128
    time left       =     -1s



           Memory information
           ------------------

    heap     =   58982400 doubles =    450.0 Mbytes
    stack    =   58982397 doubles =    450.0 Mbytes
    global   =  117964800 doubles =    900.0 Mbytes (distinct from heap & stack)
    total    =  235929597 doubles =   1800.0 Mbytes
    verify   = yes
    hardfail = no 


           Directory information
           ---------------------
 
  0 permanent = .
  0 scratch   = /cluster/work/users/marcof/82821/meoh
 
 
 
 
                                NWChem Input Module
                                -------------------
 
 
                                     meoh_pes
                                     --------

 Scaling coordinates for geometry "geometry" by  1.889725989
 (inverse scale =  0.529177249)

 CS  symmetry detected

          ------
          auto-z
          ------
 
 
                             Geometry "geometry" -> ""
                             -------------------------
 
 Output coordinates in angstroms (scale by  1.889725989 to convert to a.u.)
 
  No.       Tag          Charge          X              Y              Z
 ---- ---------------- ---------- -------------- -------------- --------------
    1 C                    6.0000     0.01314934    -0.65348531     0.00000000
    2 H                    1.0000    -0.52058159    -1.00615154    -0.90917244
    3 H                    1.0000    -0.52058159    -1.00615154     0.90917244
    4 H                    1.0000     1.03792856    -1.07854909     0.00000000
    5 O                    8.0000     0.09562338     0.74252379     0.00000000
    6 H                    1.0000    -0.84064839     1.07157368     0.00000000
 
      Atomic Mass 
      ----------- 
 
      C                 12.000000
      H                  1.007825
      O                 15.994910
 

 Effective nuclear repulsion energy (a.u.)      40.3422073506

            Nuclear Dipole moment (a.u.) 
            ----------------------------
        X                 Y               Z
 ---------------- ---------------- ----------------
    -0.0000000000    -0.0000000000     0.0000000000
 
      Symmetry information
      --------------------
 
 Group name             Cs        
 Group number              2
 Group order               2
 No. of unique centers     5
 
      Symmetry unique atoms
 
     1    2    4    5    6
 


                                Z-matrix (autoz)
                                -------- 

 Units are Angstrom for bonds and degrees for angles
 
      Type          Name      I     J     K     L     M      Value
      ----------- --------  ----- ----- ----- ----- ----- ----------
    1 Stretch                  1     2                       1.11168
    2 Stretch                  1     3                       1.11168
    3 Stretch                  1     4                       1.10944
    4 Stretch                  1     5                       1.39844
    5 Stretch                  5     6                       0.99241
    6 Bend                     1     5     6               105.98286
    7 Bend                     2     1     3               109.73731
    8 Bend                     2     1     4               108.77973
    9 Bend                     2     1     5               110.18175
   10 Bend                     3     1     4               108.77973
   11 Bend                     3     1     5               110.18175
   12 Bend                     4     1     5               109.14696
   13 Torsion                  2     1     5     6          60.61383
   14 Torsion                  3     1     5     6         -60.61383
   15 Torsion                  4     1     5     6         180.00000
 
 
            XYZ format geometry
            -------------------
     6
 geometry
 C                     0.01314934    -0.65348531     0.00000000
 H                    -0.52058159    -1.00615154    -0.90917244
 H                    -0.52058159    -1.00615154     0.90917244
 H                     1.03792856    -1.07854909     0.00000000
 O                     0.09562338     0.74252379     0.00000000
 H                    -0.84064839     1.07157368     0.00000000
 
 ==============================================================================
                                internuclear distances
 ------------------------------------------------------------------------------
       center one      |      center two      | atomic units |  angstroms
 ------------------------------------------------------------------------------
    2 H                |   1 C                |     2.10077  |     1.11168
    3 H                |   1 C                |     2.10077  |     1.11168
    4 H                |   1 C                |     2.09653  |     1.10944
    5 O                |   1 C                |     2.64267  |     1.39844
    6 H                |   5 O                |     1.87538  |     0.99241
 ------------------------------------------------------------------------------
                         number of included internuclear distances:          5
 ==============================================================================



 ==============================================================================
                                 internuclear angles
 ------------------------------------------------------------------------------
        center 1       |       center 2       |       center 3       |  degrees
 ------------------------------------------------------------------------------
    2 H                |   1 C                |   3 H                |   109.74
    2 H                |   1 C                |   4 H                |   108.78
    2 H                |   1 C                |   5 O                |   110.18
    3 H                |   1 C                |   4 H                |   108.78
    3 H                |   1 C                |   5 O                |   110.18
    4 H                |   1 C                |   5 O                |   109.15
    1 C                |   5 O                |   6 H                |   105.98
 ------------------------------------------------------------------------------
                            number of included internuclear angles:          7
 ==============================================================================



  library name resolved from: environment
  library file name is: <
 /cluster/software/NWChem/6.6.revision27746-intel-2018a-2015-10-20-patches-20170
 814-Python-2.7.14/data/libraries/>
  
                      Basis "ao basis" -> "" (cartesian)
                      -----
  H (Hydrogen)
  ------------
            Exponent  Coefficients 
       -------------- ---------------------------------------------------------
  1 S  5.44717800E+00  0.156285
  1 S  8.24547000E-01  0.904691
 
  2 S  1.83192000E-01  1.000000
 
  O (Oxygen)
  ----------
            Exponent  Coefficients 
       -------------- ---------------------------------------------------------
  1 S  3.22037000E+02  0.059239
  1 S  4.84308000E+01  0.351500
  1 S  1.04206000E+01  0.707658
 
  2 S  7.40294000E+00 -0.404453
  2 S  1.57620000E+00  1.221560
 
  3 P  7.40294000E+00  0.244586
  3 P  1.57620000E+00  0.853955
 
  4 S  3.73684000E-01  1.000000
 
  5 P  3.73684000E-01  1.000000
 
  C (Carbon)
  ----------
            Exponent  Coefficients 
       -------------- ---------------------------------------------------------
  1 S  1.72256000E+02  0.061767
  1 S  2.59109000E+01  0.358794
  1 S  5.53335000E+00  0.700713
 
  2 S  3.66498000E+00 -0.395897
  2 S  7.70545000E-01  1.215840
 
  3 P  3.66498000E+00  0.236460
  3 P  7.70545000E-01  0.860619
 
  4 S  1.95857000E-01  1.000000
 
  5 P  1.95857000E-01  1.000000
 


 Summary of "ao basis" -> "" (cartesian)
 ------------------------------------------------------------------------------
       Tag                 Description            Shells   Functions and Types
 ---------------- ------------------------------  ------  ---------------------
 H                           3-21G                   2        2   2s
 O                           3-21G                   5        9   3s2p
 C                           3-21G                   5        9   3s2p


 
                               NWChem Python program
                               ---------------------
 
from nwgeom import *
geom = '''
    geometry adjust
        zcoord
            bond 1 5 %f cccc constant
        end
    end
'''
results=scan_input(geom,[1.398],[3.398],19,'dft',task_optimize)
for i in range(0,len(results)):
    print results[i][0][0],results[i][1]
 
 
 Scanning NWChem input 
 ---------------------
 

    geometry adjust
        zcoord
            bond 1 5 %f cccc constant
        end
    end

 
 Nstep  19
 Start  [1.398]
 End    [3.398]
 
 
 Scanning NWChem input - step 1 of 19 
 

    geometry adjust
        zcoord
            bond 1 5 1.498000 cccc constant
        end
    end

 
 
 
                                NWChem Input Module
                                -------------------
 
 

 Adjusting existing geometry named geometry

 User specification of redundant internal variables 
 --------------------------------------------------

   i   j   k   l     value       name   frz
  --- --- --- --- ------------ -------- ---
    1   5             1.498000 cccc       T
 

          ------
          auto-z
          ------
 
 
                         Geometry "geometry" -> "geometry"
                         ---------------------------------
 
 Output coordinates in angstroms (scale by  1.889725989 to convert to a.u.)
 
  No.       Tag          Charge          X              Y              Z
 ---- ---------------- ---------- -------------- -------------- --------------
    1 C                    6.0000     0.01425722    -0.68534160    -0.00000000
    2 H                    1.0000    -0.51621658    -1.04293728    -0.90917244
    3 H                    1.0000    -0.51621658    -1.04293728     0.90917244
    4 H                    1.0000     1.04296229    -1.10094073     0.00000000
    5 O                    8.0000     0.08970709     0.81075710    -0.00000000
    6 H                    1.0000    -0.84960375     1.13115978     0.00000000
 
      Atomic Mass 
      ----------- 
 
      C                 12.000000
      H                  1.007825
      O                 15.994910
 

 Effective nuclear repulsion energy (a.u.)      38.7935137473

            Nuclear Dipole moment (a.u.) 
            ----------------------------
        X                 Y               Z
 ---------------- ---------------- ----------------
    -0.0677930975     0.6015975032    -0.0000000000
 


                                Z-matrix (autoz)
                                -------- 

 Units are Angstrom for bonds and degrees for angles

  Constants are marked with an asterisk (*).
 
      Type          Name      I     J     K     L     M      Value
      ----------- --------  ----- ----- ----- ----- ----- ----------
    1*Stretch      cccc        1     5                       1.49800
    2 Stretch                  1     2                       1.11170
    3 Stretch                  1     3                       1.11170
    4 Stretch                  1     4                       1.10948
    5 Stretch                  5     6                       0.99245
    6 Bend                     1     5     6               105.94767
    7 Bend                     2     1     5               110.19962
    8 Bend                     2     1     3               109.73501
    9 Bend                     2     1     4               108.78029
   10 Bend                     3     1     5               110.19962
   11 Bend                     3     1     4               108.78029
   12 Bend                     4     1     5               109.11178
   13 Torsion                  2     1     5     6          60.62406
   14 Torsion                  3     1     5     6         -60.62406
   15 Torsion                  4     1     5     6        -180.00000
 
 
            XYZ format geometry
            -------------------
     6
 geometry
 C                     0.01425722    -0.68534160    -0.00000000
 H                    -0.51621658    -1.04293728    -0.90917244
 H                    -0.51621658    -1.04293728     0.90917244
 H                     1.04296229    -1.10094073     0.00000000
 O                     0.08970709     0.81075710    -0.00000000
 H                    -0.84960375     1.13115978     0.00000000
 
 ==============================================================================
                                internuclear distances
 ------------------------------------------------------------------------------
       center one      |      center two      | atomic units |  angstroms
 ------------------------------------------------------------------------------
    2 H                |   1 C                |     2.10080  |     1.11170
    3 H                |   1 C                |     2.10080  |     1.11170
    4 H                |   1 C                |     2.09662  |     1.10948
    5 O                |   1 C                |     2.83081  |     1.49800
    6 H                |   5 O                |     1.87546  |     0.99245
 ------------------------------------------------------------------------------
                         number of included internuclear distances:          5
 ==============================================================================



 ==============================================================================
                                 internuclear angles
 ------------------------------------------------------------------------------
        center 1       |       center 2       |       center 3       |  degrees
 ------------------------------------------------------------------------------
    2 H                |   1 C                |   3 H                |   109.74
    2 H                |   1 C                |   4 H                |   108.78
    2 H                |   1 C                |   5 O                |   110.20
    3 H                |   1 C                |   4 H                |   108.78
    3 H                |   1 C                |   5 O                |   110.20
    4 H                |   1 C                |   5 O                |   109.11
    1 C                |   5 O                |   6 H                |   105.95
 ------------------------------------------------------------------------------
                            number of included internuclear angles:          7
 ==============================================================================



 
 
                           NWChem Geometry Optimization
                           ----------------------------
 
 
 
 
                                     meoh_pes
 
 
 maximum gradient threshold         (gmax) =   0.000450
 rms gradient threshold             (grms) =   0.000300
 maximum cartesian step threshold   (xmax) =   0.001800
 rms cartesian step threshold       (xrms) =   0.001200
 fixed trust radius                (trust) =   0.300000
 maximum step size to saddle      (sadstp) =   0.100000
 energy precision                  (eprec) =   5.0D-06
 maximum number of steps          (nptopt) =  888
 initial hessian option           (inhess) =    0
 line search option               (linopt) =    1
 hessian update option            (modupd) =    1
 saddle point option              (modsad) =    0
 initial eigen-mode to follow     (moddir) =    0
 initial variable to follow       (vardir) =    0
 follow first negative mode     (firstneg) =    T
 apply conjugacy                    (opcg) =    F
 source of zmatrix                         =   autoz   


          -------------------
          Energy Minimization
          -------------------

 
 Names of Z-matrix variables 
    1 cccc         2              3              4              5         
    6              7              8              9             10         
   11             12             13             14             15         
 
 Variables with the same non-blank name are constrained to be equal
 

 Number of frozen variables =    1
           Frozen variables =    1
 
 Using diagonal initial Hessian 
 Scaling for Hessian diagonals: bonds = 1.00  angles = 0.25  torsions = 0.10

          --------
          Step   0
          --------
 
 
                         Geometry "geometry" -> "geometry"
                         ---------------------------------
 
 Output coordinates in angstroms (scale by  1.889725989 to convert to a.u.)
 
  No.       Tag          Charge          X              Y              Z
 ---- ---------------- ---------- -------------- -------------- --------------
    1 C                    6.0000     0.01425722    -0.68534160    -0.00000000
    2 H                    1.0000    -0.51621658    -1.04293728    -0.90917244
    3 H                    1.0000    -0.51621658    -1.04293728     0.90917244
    4 H                    1.0000     1.04296229    -1.10094073     0.00000000
    5 O                    8.0000     0.08970709     0.81075710    -0.00000000
    6 H                    1.0000    -0.84960375     1.13115978     0.00000000
 
      Atomic Mass 
      ----------- 
 
      C                 12.000000
      H                  1.007825
      O                 15.994910
 

 Effective nuclear repulsion energy (a.u.)      38.7935137473

            Nuclear Dipole moment (a.u.) 
            ----------------------------
        X                 Y               Z
 ---------------- ---------------- ----------------
    -0.0677930975     0.6015975032    -0.0000000000
 
 
                                 NWChem DFT Module
                                 -----------------
 
 
                                     meoh_pes
 
 


 Summary of "ao basis" -> "ao basis" (cartesian)
 ------------------------------------------------------------------------------
       Tag                 Description            Shells   Functions and Types
 ---------------- ------------------------------  ------  ---------------------
 H                           3-21G                   2        2   2s
 O                           3-21G                   5        9   3s2p
 C                           3-21G                   5        9   3s2p


  Caching 1-el integrals 
 
            General Information
            -------------------
          SCF calculation type: DFT
          Wavefunction type:  closed shell.
          No. of atoms     :     6
          No. of electrons :    18
           Alpha electrons :     9
            Beta electrons :     9
          Charge           :     0
          Spin multiplicity:     1
          Use of symmetry is: off; symmetry adaption is: off
          Maximum number of iterations:  99
          This is a Direct SCF calculation.
          AO basis - number of functions:    26
                     number of shells:    18
          Convergence on energy requested: 1.00D-06
          Convergence on density requested: 1.00D-05
          Convergence on gradient requested: 5.00D-04
 
              XC Information
              --------------
                         B3LYP Method XC Potential
                     Hartree-Fock (Exact) Exchange  0.200          
                        Slater Exchange Functional  0.800 local    
                    Becke 1988 Exchange Functional  0.720 non-local
              Lee-Yang-Parr Correlation Functional  0.810          
                  VWN I RPA Correlation Functional  0.190 local    
 
             Grid Information
             ----------------
          Grid used for XC integration:  fine      
          Radial quadrature: Mura-Knowles        
          Angular quadrature: Lebedev. 
          Tag              B.-S. Rad. Rad. Pts. Rad. Cut. Ang. Pts.
          ---              ---------- --------- --------- ---------
          C                   0.70       70           7.0       590
          H                   0.35       60           8.0       590
          O                   0.60       70           7.0       590
          Grid pruning is: on 
          Number of quadrature shells:   380
          Spatial weights used:  Erf1
 
          Convergence Information
          -----------------------
          Convergence aids based upon iterative change in 
          total energy or number of iterations. 
          Levelshifting, if invoked, occurs when the 
          HOMO/LUMO gap drops below (HL_TOL): 1.00D-02
          DIIS, if invoked, will attempt to extrapolate 
          using up to (NFOCK): 10 stored Fock matrices.

                    Damping( 0%)  Levelshifting(0.5)       DIIS
                  --------------- ------------------- ---------------
          dE  on:    start            ASAP                start   
          dE off:    2 iters         99 iters            99 iters 

 
      Screening Tolerance Information
      -------------------------------
          Density screening/tol_rho: 1.00D-10
          AO Gaussian exp screening on grid/accAOfunc:  14
          CD Gaussian exp screening on grid/accCDfunc:  20
          XC Gaussian exp screening on grid/accXCfunc:  20
          Schwarz screening/accCoul: 1.00D-08

 
      Superposition of Atomic Density Guess
      -------------------------------------
 
 Sum of atomic energies:        -113.81724656
 
      Non-variational initial energy
      ------------------------------

 Total energy =    -114.452265
 1-e energy   =    -231.533099
 2-e energy   =      78.287320
 HOMO         =      -0.351885
 LUMO         =       0.149440
 
   Time after variat. SCF:      1.5

     ---------------------------------------------
      Total Density - Mulliken Population Analysis
     ---------------------------------------------

    Atom       Charge   Shell Charges
 -----------   ------   -------------------------------------------------------
    1 C    6     6.23   1.99  0.39  1.37  1.07  1.41
    2 H    1     0.80   0.43  0.37
    3 H    1     0.80   0.43  0.37
    4 H    1     0.79   0.43  0.36
    5 O    8     8.86   1.99  0.44  2.21  1.45  2.78
    6 H    1     0.51   0.31  0.19
   Time prior to 1st pass:      1.5

 Grid_pts file          = /cluster/work/users/marcof/82821/meoh/meoh_pes.gridpts.000
 Record size in doubles =  12289        No. of grid_pts per rec  =   3070
 Max. records in memory =      2        Max. recs in file   =   7916022


           Memory utilization after 1st SCF pass: 
           Heap Space remaining (MW):       35.41            35405808
          Stack Space remaining (MW):       58.98            58982084

   convergence    iter        energy       DeltaE   RMS-Dens  Diis-err    time
 ---------------- ----- ----------------- --------- --------- ---------  ------
 d= 0,ls=0.0,diis     1   -115.0209453252 -1.54D+02  3.50D-02  4.25D-01     1.6
 d= 0,ls=0.0,diis     2   -115.0119053615  9.04D-03  1.92D-02  6.08D-01     1.7
 d= 0,ls=0.0,diis     3   -115.0699598869 -5.81D-02  2.29D-03  1.99D-02     1.7
 d= 0,ls=0.0,diis     4   -115.0715604087 -1.60D-03  5.49D-04  3.50D-04     1.7
 d= 0,ls=0.0,diis     5   -115.0715993607 -3.90D-05  1.96D-04  5.47D-05     1.7
  Resetting Diis
 d= 0,ls=0.0,diis     6   -115.0716058613 -6.50D-06  1.56D-05  1.17D-07     1.7
 d= 0,ls=0.0,diis     7   -115.0716058810 -1.97D-08  3.95D-06  3.74D-09     1.7


         Total DFT energy =     -115.071605880986
      One electron energy =     -233.369752552999
           Coulomb energy =       94.931921097020
    Exchange-Corr. energy =      -15.427288172265
 Nuclear repulsion energy =       38.793513747258

 Numeric. integr. density =       17.999999958005

     Total iterative time =      0.2s


 
                       DFT Final Molecular Orbital Analysis
                       ------------------------------------
 
 Vector    1  Occ=2.000000D+00  E=-1.901446D+01
              MO Center=  8.9D-02,  8.1D-01, -5.8D-15, r^2= 1.5D-02
   Bfn.  Coefficient  Atom+Function         Bfn.  Coefficient  Atom+Function  
  ----- ------------  ---------------      ----- ------------  ---------------
    16      0.982335  5 O  s          
 
 Vector    2  Occ=2.000000D+00  E=-1.016680D+01
              MO Center=  1.4D-02, -6.9D-01,  4.8D-12, r^2= 2.8D-02
   Bfn.  Coefficient  Atom+Function         Bfn.  Coefficient  Atom+Function  
  ----- ------------  ---------------      ----- ------------  ---------------
     1      0.985879  1 C  s          
 
 Vector    3  Occ=2.000000D+00  E=-9.811928D-01
              MO Center= -9.5D-02,  6.3D-01, -3.6D-11, r^2= 6.1D-01
   Bfn.  Coefficient  Atom+Function         Bfn.  Coefficient  Atom+Function  
  ----- ------------  ---------------      ----- ------------  ---------------
    21      0.669619  5 O  s                 16     -0.220320  5 O  s          
    17      0.208749  5 O  s          
 
 Vector    4  Occ=2.000000D+00  E=-6.744626D-01
              MO Center= -1.4D-02, -6.0D-01, -6.8D-10, r^2= 1.4D+00
   Bfn.  Coefficient  Atom+Function         Bfn.  Coefficient  Atom+Function  
  ----- ------------  ---------------      ----- ------------  ---------------
     6      0.585253  1 C  s                 21     -0.245894  5 O  s          
     2      0.197839  1 C  s                  1     -0.196494  1 C  s          
 
 Vector    5  Occ=2.000000D+00  E=-4.743800D-01
              MO Center= -1.2D-01,  1.4D-01, -1.7D-10, r^2= 1.5D+00
   Bfn.  Coefficient  Atom+Function         Bfn.  Coefficient  Atom+Function  
  ----- ------------  ---------------      ----- ------------  ---------------
    18      0.259288  5 O  px                22      0.225093  5 O  px         
    19     -0.213433  5 O  py                 3      0.199112  1 C  px         
    25     -0.197176  6 H  s                 21      0.189865  5 O  s          
     4      0.188904  1 C  py                23     -0.187936  5 O  py         
    26     -0.175464  6 H  s                  7      0.166594  1 C  px         
 
 Vector    6  Occ=2.000000D+00  E=-4.280666D-01
              MO Center= -1.8D-01, -6.6D-01,  9.5D-10, r^2= 1.4D+00
   Bfn.  Coefficient  Atom+Function         Bfn.  Coefficient  Atom+Function  
  ----- ------------  ---------------      ----- ------------  ---------------
     5      0.376068  1 C  pz                 9      0.287690  1 C  pz         
    10     -0.202785  2 H  s                 12      0.202785  3 H  s          
    11     -0.183868  2 H  s                 13      0.183868  3 H  s          
    20      0.159082  5 O  pz                24      0.155604  5 O  pz         
 
 Vector    7  Occ=2.000000D+00  E=-4.089922D-01
              MO Center=  2.9D-01, -4.2D-01,  5.3D-11, r^2= 1.6D+00
   Bfn.  Coefficient  Atom+Function         Bfn.  Coefficient  Atom+Function  
  ----- ------------  ---------------      ----- ------------  ---------------
     3      0.301235  1 C  px                 7      0.252670  1 C  px         
    19      0.246031  5 O  py                14      0.243141  4 H  s          
    23      0.239936  5 O  py                 4     -0.210713  1 C  py         
    15      0.209205  4 H  s                  8     -0.161956  1 C  py         
 
 Vector    8  Occ=2.000000D+00  E=-3.067112D-01
              MO Center=  1.4D-01,  4.8D-01, -4.0D-11, r^2= 1.4D+00
   Bfn.  Coefficient  Atom+Function         Bfn.  Coefficient  Atom+Function  
  ----- ------------  ---------------      ----- ------------  ---------------
    21      0.387229  5 O  s                 22      0.360724  5 O  px         
    18      0.340105  5 O  px                23      0.260695  5 O  py         
    19      0.226308  5 O  py                 3     -0.170501  1 C  px         
    15     -0.155888  4 H  s          
 
 Vector    9  Occ=2.000000D+00  E=-2.423854D-01
              MO Center=  1.8D-02,  5.6D-01,  9.3D-11, r^2= 1.1D+00
   Bfn.  Coefficient  Atom+Function         Bfn.  Coefficient  Atom+Function  
  ----- ------------  ---------------      ----- ------------  ---------------
    24      0.582910  5 O  pz                20      0.507135  5 O  pz         
    11      0.193051  2 H  s                 13     -0.193051  3 H  s          
 
 Vector   10  Occ=0.000000D+00  E= 9.284180D-02
              MO Center= -6.0D-01,  4.8D-01, -7.5D-11, r^2= 2.5D+00
   Bfn.  Coefficient  Atom+Function         Bfn.  Coefficient  Atom+Function  
  ----- ------------  ---------------      ----- ------------  ---------------
    26     -0.934504  6 H  s                 21      0.869349  5 O  s          
     8     -0.592462  1 C  py                 6      0.517889  1 C  s          
    11     -0.436193  2 H  s                 13     -0.436193  3 H  s          
    22     -0.409465  5 O  px                 4     -0.233382  1 C  py         
    18     -0.227050  5 O  px                15     -0.196859  4 H  s          
 
 Vector   11  Occ=0.000000D+00  E= 1.450208D-01
              MO Center= -5.0D-02, -9.1D-01, -3.6D-09, r^2= 3.2D+00
   Bfn.  Coefficient  Atom+Function         Bfn.  Coefficient  Atom+Function  
  ----- ------------  ---------------      ----- ------------  ---------------
     6      2.119262  1 C  s                 11     -0.980603  2 H  s          
    13     -0.980603  3 H  s                 15     -0.955274  4 H  s          
    21     -0.428486  5 O  s                 26      0.281479  6 H  s          
    23      0.253523  5 O  py                 1     -0.187379  1 C  s          
     8     -0.173835  1 C  py         
 
 Vector   12  Occ=0.000000D+00  E= 1.773906D-01
              MO Center=  4.4D-01, -8.5D-01, -1.1D-09, r^2= 2.6D+00
   Bfn.  Coefficient  Atom+Function         Bfn.  Coefficient  Atom+Function  
  ----- ------------  ---------------      ----- ------------  ---------------
    15      1.550909  4 H  s                  7     -1.148342  1 C  px         
    11     -0.581731  2 H  s                 13     -0.581731  3 H  s          
     8      0.473284  1 C  py                 3     -0.346943  1 C  px         
    26     -0.311556  6 H  s                 23      0.289711  5 O  py         
    19      0.155631  5 O  py         
 
 Vector   13  Occ=0.000000D+00  E= 1.856712D-01
              MO Center= -4.3D-01, -9.7D-01,  4.9D-09, r^2= 2.5D+00
   Bfn.  Coefficient  Atom+Function         Bfn.  Coefficient  Atom+Function  
  ----- ------------  ---------------      ----- ------------  ---------------
    11      1.340678  2 H  s                 13     -1.340678  3 H  s          
     9      1.257983  1 C  pz                 5      0.401966  1 C  pz         
    24     -0.193966  5 O  pz         
 
 Vector   14  Occ=0.000000D+00  E= 2.026254D-01
              MO Center= -1.7D-01,  8.7D-02, -3.4D-10, r^2= 2.5D+00
   Bfn.  Coefficient  Atom+Function         Bfn.  Coefficient  Atom+Function  
  ----- ------------  ---------------      ----- ------------  ---------------
    26     -0.825706  6 H  s                  8      0.820780  1 C  py         
    23      0.630171  5 O  py                 7      0.524386  1 C  px         
    11      0.453213  2 H  s                 13      0.453213  3 H  s          
    15     -0.445889  4 H  s                 22     -0.376961  5 O  px         
    19      0.314701  5 O  py                 4      0.287869  1 C  py         
 
 Vector   15  Occ=0.000000D+00  E= 6.940685D-01
              MO Center=  3.5D-02, -8.7D-01,  5.3D-11, r^2= 1.5D+00
   Bfn.  Coefficient  Atom+Function         Bfn.  Coefficient  Atom+Function  
  ----- ------------  ---------------      ----- ------------  ---------------
     8      1.368290  1 C  py                 4     -0.965696  1 C  py         
    21     -0.494705  5 O  s                  7      0.276803  1 C  px         
    23      0.245956  5 O  py                26     -0.240827  6 H  s          
    10      0.228651  2 H  s                 12      0.228651  3 H  s          
    19     -0.198062  5 O  py                 3     -0.173340  1 C  px         
 
 Vector   16  Occ=0.000000D+00  E= 7.369925D-01
              MO Center= -2.0D-01, -5.4D-01,  1.1D-10, r^2= 1.9D+00
   Bfn.  Coefficient  Atom+Function         Bfn.  Coefficient  Atom+Function  
  ----- ------------  ---------------      ----- ------------  ---------------
     7      1.372707  1 C  px                 3     -0.747783  1 C  px         
    14     -0.573601  4 H  s                  8     -0.338502  1 C  py         
    25      0.313049  6 H  s                  4      0.241605  1 C  py         
    10      0.242641  2 H  s                 12      0.242641  3 H  s          
    15     -0.198327  4 H  s          
 
 Vector   17  Occ=0.000000D+00  E= 7.502791D-01
              MO Center=  1.9D-01, -6.1D-01, -3.3D-10, r^2= 1.8D+00
   Bfn.  Coefficient  Atom+Function         Bfn.  Coefficient  Atom+Function  
  ----- ------------  ---------------      ----- ------------  ---------------
     9      1.522496  1 C  pz                 5     -0.792911  1 C  pz         
    10      0.477889  2 H  s                 12     -0.477889  3 H  s          
    11      0.221363  2 H  s                 13     -0.221363  3 H  s          
    20     -0.180487  5 O  pz         
 
 Vector   18  Occ=0.000000D+00  E= 9.418746D-01
              MO Center= -4.8D-01,  1.8D-02, -9.7D-12, r^2= 2.5D+00
   Bfn.  Coefficient  Atom+Function         Bfn.  Coefficient  Atom+Function  
  ----- ------------  ---------------      ----- ------------  ---------------
    25     -0.896428  6 H  s                  7      0.823255  1 C  px         
    26      0.663374  6 H  s                 11      0.568879  2 H  s          
    13      0.568879  3 H  s                 10     -0.545732  2 H  s          
    12     -0.545732  3 H  s                  3     -0.447321  1 C  px         
    15     -0.419372  4 H  s                 18     -0.240883  5 O  px         
 
 Vector   19  Occ=0.000000D+00  E= 9.924264D-01
              MO Center=  5.5D-01, -7.6D-01,  2.1D-10, r^2= 2.1D+00
   Bfn.  Coefficient  Atom+Function         Bfn.  Coefficient  Atom+Function  
  ----- ------------  ---------------      ----- ------------  ---------------
    15      1.294429  4 H  s                 14     -1.003559  4 H  s          
     7     -0.789391  1 C  px                 3      0.496127  1 C  px         
    26     -0.468330  6 H  s                 25      0.438404  6 H  s          
     8      0.328219  1 C  py                10     -0.313751  2 H  s          
    12     -0.313751  3 H  s                  4     -0.309442  1 C  py         
 

     ---------------------------------------------
      Total Density - Mulliken Population Analysis
     ---------------------------------------------

    Atom       Charge   Shell Charges
 -----------   ------   -------------------------------------------------------
    1 C    6     6.34   1.99  0.38  1.60  1.05  1.33
    2 H    1     0.83   0.48  0.35
    3 H    1     0.83   0.48  0.35
    4 H    1     0.79   0.47  0.32
    5 O    8     8.54   1.98  0.43  2.11  1.50  2.51
    6 H    1     0.67   0.44  0.23

     -------------------------------------------
      Total Density - Lowdin Population Analysis
     -------------------------------------------

    Atom       Charge   Shell Charges
 -----------   ------   -------------------------------------------------------
    1 C    6     6.11   1.97  0.43  1.49  0.61  1.60
    2 H    1     0.93   0.48  0.46
    3 H    1     0.93   0.48  0.46
    4 H    1     0.91   0.47  0.44
    5 O    8     8.34   1.98  0.59  2.08  1.08  2.62
    6 H    1     0.78   0.44  0.33

 center of mass
 --------------
 x =   0.04486215 y =   0.15767164 z =  -0.00000000

 moments of inertia (a.u.)
 ------------------
          79.623752667393           0.206989171420           0.000000000000
           0.206989171420          14.784628331394          -0.000000000000
           0.000000000000          -0.000000000000          82.508700030466
 
     Multipole analysis of the density
     ---------------------------------
 
     L   x y z        total         alpha         beta         nuclear
     -   - - -        -----         -----         ----         -------
     0   0 0 0     -0.000000     -9.000000     -9.000000     18.000000
 
     1   1 0 0     -0.625783     -0.278995     -0.278995     -0.067793
     1   0 1 0     -0.432197     -0.516897     -0.516897      0.601598
     1   0 0 1     -0.000000     -0.000000     -0.000000     -0.000000
 
     2   2 0 0     -8.726434     -8.663054     -8.663054      8.599675
     2   1 1 0     -1.749870      0.034428      0.034428     -1.818726
     2   1 0 1      0.000000      0.000000      0.000000     -0.000000
     2   0 2 0     -9.494817    -27.501881    -27.501881     45.508946
     2   0 1 1      0.000000      0.000000      0.000000      0.000000
     2   0 0 2     -9.989592     -7.946618     -7.946618      5.903644
 
 
            General Information
            -------------------
          SCF calculation type: DFT
          Wavefunction type:  closed shell.
          No. of atoms     :     6
          No. of electrons :    18
           Alpha electrons :     9
            Beta electrons :     9
          Charge           :     0
          Spin multiplicity:     1
          Use of symmetry is: off; symmetry adaption is: off
          Maximum number of iterations:  99
          This is a Direct SCF calculation.
          AO basis - number of functions:    26
                     number of shells:    18
          Convergence on energy requested: 1.00D-06
          Convergence on density requested: 1.00D-05
          Convergence on gradient requested: 5.00D-04
 
              XC Information
              --------------
                         B3LYP Method XC Potential
                     Hartree-Fock (Exact) Exchange  0.200          
                        Slater Exchange Functional  0.800 local    
                    Becke 1988 Exchange Functional  0.720 non-local
              Lee-Yang-Parr Correlation Functional  0.810          
                  VWN I RPA Correlation Functional  0.190 local    
 
             Grid Information
             ----------------
          Grid used for XC integration:  fine      
          Radial quadrature: Mura-Knowles        
          Angular quadrature: Lebedev. 
          Tag              B.-S. Rad. Rad. Pts. Rad. Cut. Ang. Pts.
          ---              ---------- --------- --------- ---------
          C                   0.70       70           7.0       590
          H                   0.35       60           8.0       590
          O                   0.60       70           7.0       590
          Grid pruning is: on 
          Number of quadrature shells:   380
          Spatial weights used:  Erf1
 
          Convergence Information
          -----------------------
          Convergence aids based upon iterative change in 
          total energy or number of iterations. 
          Levelshifting, if invoked, occurs when the 
          HOMO/LUMO gap drops below (HL_TOL): 1.00D-02
          DIIS, if invoked, will attempt to extrapolate 
          using up to (NFOCK): 10 stored Fock matrices.

                    Damping( 0%)  Levelshifting(0.5)       DIIS
                  --------------- ------------------- ---------------
          dE  on:    start            ASAP                start   
          dE off:    2 iters         99 iters            99 iters 

 
      Screening Tolerance Information
      -------------------------------
          Density screening/tol_rho: 1.00D-10
          AO Gaussian exp screening on grid/accAOfunc:  14
          CD Gaussian exp screening on grid/accCDfunc:  20
          XC Gaussian exp screening on grid/accXCfunc:  20
          Schwarz screening/accCoul: 1.00D-08

 
 
                            NWChem DFT Gradient Module
                            --------------------------
 
 
                                     meoh_pes
 
 

  charge          =   0.00
  wavefunction    = closed shell



                         DFT ENERGY GRADIENTS

    atom               coordinates                        gradient
                 x          y          z           x          y          z
   1 C       0.026942  -1.295108  -0.000000    0.007001  -0.012371   0.000000
   2 H      -0.975508  -1.970866  -1.718087   -0.004329   0.001929  -0.007949
   3 H      -0.975508  -1.970866   1.718087   -0.004329   0.001929   0.007949
   4 H       1.970913  -2.080476   0.000000    0.009351  -0.009975  -0.000000
   5 O       0.169522   1.532109  -0.000000   -0.010661   0.018024  -0.000000
   6 H      -1.605518   2.137582   0.000000    0.002968   0.000464   0.000000
 
                 ----------------------------------------
                 |  Time  |  1-e(secs)   |  2-e(secs)   |
                 ----------------------------------------
                 |  CPU   |       0.01   |       0.01   |
                 ----------------------------------------
                 |  WALL  |       0.01   |       0.01   |
                 ----------------------------------------

@ Step       Energy      Delta E   Gmax     Grms     Xrms     Xmax   Walltime
@ ---- ---------------- -------- -------- -------- -------- -------- --------
@    0    -115.07160588  0.0D+00  0.01241  0.00500  0.00000  0.00000      4.3
                                                                    

  Internal coordinate gradient before constraints


                                Z-matrix (autoz)
                                -------- 

 Units are Angstrom for bonds and degrees for angles

  Constants are marked with an asterisk (*).
 
      Type          Name      I     J     K     L     M      Value     Gradient
      ----------- --------  ----- ----- ----- ----- ----- ---------- ----------
    1*Stretch      cccc        1     5                       1.49800    0.01808
    2 Stretch                  1     2                       1.11170    0.00795
    3 Stretch                  1     3                       1.11170    0.00795
    4 Stretch                  1     4                       1.10948    0.01241
    5 Stretch                  5     6                       0.99245   -0.00266
    6 Bend                     1     5     6               105.94767    0.00139
    7 Bend                     2     1     5               110.19962   -0.00420
    8 Bend                     2     1     3               109.73501    0.00199
    9 Bend                     2     1     4               108.78029    0.00006
   10 Bend                     3     1     5               110.19962   -0.00420
   11 Bend                     3     1     4               108.78029    0.00006
   12 Bend                     4     1     5               109.11178    0.00643
   13 Torsion                  2     1     5     6          60.62406   -0.00150
   14 Torsion                  3     1     5     6         -60.62406    0.00150
   15 Torsion                  4     1     5     6        -180.00000   -0.00000
 
  Internal coordinate gradient after constraints


                                Z-matrix (autoz)
                                -------- 

 Units are Angstrom for bonds and degrees for angles

  Constants are marked with an asterisk (*).
 
      Type          Name      I     J     K     L     M      Value     Gradient
      ----------- --------  ----- ----- ----- ----- ----- ---------- ----------
    1*Stretch      cccc        1     5                       1.49800   -0.00000
    2 Stretch                  1     2                       1.11170    0.00795
    3 Stretch                  1     3                       1.11170    0.00795
    4 Stretch                  1     4                       1.10948    0.01241
    5 Stretch                  5     6                       0.99245   -0.00266
    6 Bend                     1     5     6               105.94767    0.00139
    7 Bend                     2     1     5               110.19962   -0.00420
    8 Bend                     2     1     3               109.73501    0.00199
    9 Bend                     2     1     4               108.78029    0.00006
   10 Bend                     3     1     5               110.19962   -0.00420
   11 Bend                     3     1     4               108.78029    0.00006
   12 Bend                     4     1     5               109.11178    0.00643
   13 Torsion                  2     1     5     6          60.62406   -0.00150
   14 Torsion                  3     1     5     6         -60.62406    0.00150
   15 Torsion                  4     1     5     6        -180.00000   -0.00000
 
 
                                 NWChem DFT Module
                                 -----------------
 
 
                                     meoh_pes
 
 


 Summary of "ao basis" -> "ao basis" (cartesian)
 ------------------------------------------------------------------------------
       Tag                 Description            Shells   Functions and Types
 ---------------- ------------------------------  ------  ---------------------
 H                           3-21G                   2        2   2s
 O                           3-21G                   5        9   3s2p
 C                           3-21G                   5        9   3s2p


  Caching 1-el integrals 
 
            General Information
            -------------------
          SCF calculation type: DFT
          Wavefunction type:  closed shell.
          No. of atoms     :     6
          No. of electrons :    18
           Alpha electrons :     9
            Beta electrons :     9
          Charge           :     0
          Spin multiplicity:     1
          Use of symmetry is: off; symmetry adaption is: off
          Maximum number of iterations:  99
          This is a Direct SCF calculation.
          AO basis - number of functions:    26
                     number of shells:    18
          Convergence on energy requested: 1.00D-06
          Convergence on density requested: 1.00D-05
          Convergence on gradient requested: 5.00D-04
 
              XC Information
              --------------
                         B3LYP Method XC Potential
                     Hartree-Fock (Exact) Exchange  0.200          
                        Slater Exchange Functional  0.800 local    
                    Becke 1988 Exchange Functional  0.720 non-local
              Lee-Yang-Parr Correlation Functional  0.810          
                  VWN I RPA Correlation Functional  0.190 local    
 
             Grid Information
             ----------------
          Grid used for XC integration:  fine      
          Radial quadrature: Mura-Knowles        
          Angular quadrature: Lebedev. 
          Tag              B.-S. Rad. Rad. Pts. Rad. Cut. Ang. Pts.
          ---              ---------- --------- --------- ---------
          C                   0.70       70           7.0       590
          H                   0.35       60           8.0       590
          O                   0.60       70           7.0       590
          Grid pruning is: on 
          Number of quadrature shells:   380
          Spatial weights used:  Erf1
 
          Convergence Information
          -----------------------
          Convergence aids based upon iterative change in 
          total energy or number of iterations. 
          Levelshifting, if invoked, occurs when the 
          HOMO/LUMO gap drops below (HL_TOL): 1.00D-02
          DIIS, if invoked, will attempt to extrapolate 
          using up to (NFOCK): 10 stored Fock matrices.

                    Damping( 0%)  Levelshifting(0.5)       DIIS
                  --------------- ------------------- ---------------
          dE  on:    start            ASAP                start   
          dE off:    2 iters         99 iters            99 iters 

 
      Screening Tolerance Information
      -------------------------------
          Density screening/tol_rho: 1.00D-10
          AO Gaussian exp screening on grid/accAOfunc:  14
          CD Gaussian exp screening on grid/accCDfunc:  20
          XC Gaussian exp screening on grid/accXCfunc:  20
          Schwarz screening/accCoul: 1.00D-08


 Loading old vectors from job with title :

meoh_pes

   Time after variat. SCF:      1.9

     ---------------------------------------------
      Total Density - Mulliken Population Analysis
     ---------------------------------------------

    Atom       Charge   Shell Charges
 -----------   ------   -------------------------------------------------------
    1 C    6     6.34   1.99  0.38  1.61  1.05  1.33
    2 H    1     0.83   0.48  0.35
    3 H    1     0.83   0.48  0.35
    4 H    1     0.80   0.48  0.32
    5 O    8     8.54   1.98  0.43  2.11  1.50  2.51
    6 H    1     0.67   0.44  0.23
   Time prior to 1st pass:      1.9

 Grid_pts file          = /cluster/work/users/marcof/82821/meoh/meoh_pes.gridpts.000
 Record size in doubles =  12289        No. of grid_pts per rec  =   3070
 Max. records in memory =      2        Max. recs in file   =   7916022


           Memory utilization after 1st SCF pass: 
           Heap Space remaining (MW):       35.41            35405808
          Stack Space remaining (MW):       58.98            58982084

   convergence    iter        energy       DeltaE   RMS-Dens  Diis-err    time
 ---------------- ----- ----------------- --------- --------- ---------  ------
 d= 0,ls=0.0,diis     1   -115.0724552154 -1.54D+02  2.66D-03  2.81D-03     1.9
 d= 0,ls=0.0,diis     2   -115.0728019645 -3.47D-04  9.36D-04  6.35D-04     1.9
 d= 0,ls=0.0,diis     3   -115.0728315376 -2.96D-05  4.27D-04  4.51D-04     1.9
 d= 0,ls=0.0,diis     4   -115.0728777594 -4.62D-05  8.60D-05  1.32D-05     1.9
 d= 0,ls=0.0,diis     5   -115.0728789660 -1.21D-06  1.83D-05  2.61D-07     1.9
 d= 0,ls=0.0,diis     6   -115.0728789963 -3.03D-08  2.03D-06  3.26D-09     1.9


         Total DFT energy =     -115.072878996290
      One electron energy =     -233.626746123841
           Coulomb energy =       95.059004232737
    Exchange-Corr. energy =      -15.440175424239
 Nuclear repulsion energy =       38.935038319053

 Numeric. integr. density =       17.999999997179

     Total iterative time =      0.1s


 
                       DFT Final Molecular Orbital Analysis
                       ------------------------------------
 
 Vector    1  Occ=2.000000D+00  E=-1.901741D+01
              MO Center=  1.1D-01,  8.1D-01,  2.0D-08, r^2= 1.5D-02
   Bfn.  Coefficient  Atom+Function         Bfn.  Coefficient  Atom+Function  
  ----- ------------  ---------------      ----- ------------  ---------------
    16      0.982337  5 O  s          
 
 Vector    2  Occ=2.000000D+00  E=-1.016161D+01
              MO Center= -4.1D-03, -6.9D-01, -5.5D-08, r^2= 2.8D-02
   Bfn.  Coefficient  Atom+Function         Bfn.  Coefficient  Atom+Function  
  ----- ------------  ---------------      ----- ------------  ---------------
     1      0.985871  1 C  s          
 
 Vector    3  Occ=2.000000D+00  E=-9.819297D-01
              MO Center= -7.8D-02,  6.3D-01,  9.8D-09, r^2= 6.2D-01
   Bfn.  Coefficient  Atom+Function         Bfn.  Coefficient  Atom+Function  
  ----- ------------  ---------------      ----- ------------  ---------------
    21      0.670701  5 O  s                 16     -0.220430  5 O  s          
    17      0.208920  5 O  s          
 
 Vector    4  Occ=2.000000D+00  E=-6.781840D-01
              MO Center= -2.0D-02, -6.1D-01, -3.2D-08, r^2= 1.4D+00
   Bfn.  Coefficient  Atom+Function         Bfn.  Coefficient  Atom+Function  
  ----- ------------  ---------------      ----- ------------  ---------------
     6      0.583610  1 C  s                 21     -0.246465  5 O  s          
     2      0.197803  1 C  s                  1     -0.196540  1 C  s          
 
 Vector    5  Occ=2.000000D+00  E=-4.783125D-01
              MO Center= -1.1D-01,  9.4D-02, -5.3D-08, r^2= 1.6D+00
   Bfn.  Coefficient  Atom+Function         Bfn.  Coefficient  Atom+Function  
  ----- ------------  ---------------      ----- ------------  ---------------
    18      0.249992  5 O  px                22      0.217333  5 O  px         
     3      0.215588  1 C  px                19     -0.211549  5 O  py         
    25     -0.191312  6 H  s                 23     -0.184932  5 O  py         
     4      0.181534  1 C  py                21      0.176812  5 O  s          
     7      0.174832  1 C  px                26     -0.170282  6 H  s          
 
 Vector    6  Occ=2.000000D+00  E=-4.284129D-01
              MO Center= -1.9D-01, -6.7D-01, -2.2D-08, r^2= 1.4D+00
   Bfn.  Coefficient  Atom+Function         Bfn.  Coefficient  Atom+Function  
  ----- ------------  ---------------      ----- ------------  ---------------
     5      0.377843  1 C  pz                 9      0.289418  1 C  pz         
    10     -0.203947  2 H  s                 12      0.203947  3 H  s          
    11     -0.181525  2 H  s                 13      0.181525  3 H  s          
    20      0.158396  5 O  pz                24      0.154215  5 O  pz         
 
 Vector    7  Occ=2.000000D+00  E=-4.051349D-01
              MO Center=  2.7D-01, -3.5D-01, -5.2D-08, r^2= 1.6D+00
   Bfn.  Coefficient  Atom+Function         Bfn.  Coefficient  Atom+Function  
  ----- ------------  ---------------      ----- ------------  ---------------
     3      0.293087  1 C  px                19      0.261619  5 O  py         
    23      0.256137  5 O  py                 7      0.246067  1 C  px         
    14      0.238601  4 H  s                  4     -0.218947  1 C  py         
    15      0.203683  4 H  s                  8     -0.169664  1 C  py         
 
 Vector    8  Occ=2.000000D+00  E=-3.121341D-01
              MO Center=  1.6D-01,  4.9D-01,  1.2D-07, r^2= 1.4D+00
   Bfn.  Coefficient  Atom+Function         Bfn.  Coefficient  Atom+Function  
  ----- ------------  ---------------      ----- ------------  ---------------
    21      0.397102  5 O  s                 22      0.366880  5 O  px         
    18      0.347425  5 O  px                23      0.242152  5 O  py         
    19      0.209423  5 O  py                 3     -0.172179  1 C  px         
 
 Vector    9  Occ=2.000000D+00  E=-2.449477D-01
              MO Center=  3.3D-02,  5.6D-01,  1.2D-08, r^2= 1.1D+00
   Bfn.  Coefficient  Atom+Function         Bfn.  Coefficient  Atom+Function  
  ----- ------------  ---------------      ----- ------------  ---------------
    24      0.580633  5 O  pz                20      0.507057  5 O  pz         
    11      0.199362  2 H  s                 13     -0.199362  3 H  s          
 
 Vector   10  Occ=0.000000D+00  E= 9.348348D-02
              MO Center= -5.9D-01,  5.4D-01, -2.3D-08, r^2= 2.4D+00
   Bfn.  Coefficient  Atom+Function         Bfn.  Coefficient  Atom+Function  
  ----- ------------  ---------------      ----- ------------  ---------------
    26     -0.944541  6 H  s                 21      0.877176  5 O  s          
     8     -0.595931  1 C  py                 6      0.472637  1 C  s          
    22     -0.435905  5 O  px                11     -0.365225  2 H  s          
    13     -0.365224  3 H  s                 15     -0.273643  4 H  s          
    18     -0.241419  5 O  px                 4     -0.229370  1 C  py         
 
 Vector   11  Occ=0.000000D+00  E= 1.480191D-01
              MO Center= -2.5D-01, -9.5D-01,  8.6D-07, r^2= 3.0D+00
   Bfn.  Coefficient  Atom+Function         Bfn.  Coefficient  Atom+Function  
  ----- ------------  ---------------      ----- ------------  ---------------
     6      2.155177  1 C  s                 11     -1.094459  2 H  s          
    13     -1.094460  3 H  s                 15     -0.706768  4 H  s          
    21     -0.381562  5 O  s                 23      0.299322  5 O  py         
     7     -0.189661  1 C  px                 1     -0.187386  1 C  s          
    19      0.163137  5 O  py                26      0.160093  6 H  s          
 
 Vector   12  Occ=0.000000D+00  E= 1.778574D-01
              MO Center=  4.6D-01, -5.9D-01,  1.6D-07, r^2= 2.9D+00
   Bfn.  Coefficient  Atom+Function         Bfn.  Coefficient  Atom+Function  
  ----- ------------  ---------------      ----- ------------  ---------------
    15      1.598592  4 H  s                  7     -1.025149  1 C  px         
     8      0.579059  1 C  py                26     -0.572728  6 H  s          
     6     -0.362939  1 C  s                 23      0.343276  5 O  py         
    11     -0.305635  2 H  s                 13     -0.305636  3 H  s          
     3     -0.298698  1 C  px                19      0.188008  5 O  py         
 
 Vector   13  Occ=0.000000D+00  E= 1.911775D-01
              MO Center= -4.4D-01, -1.0D+00, -2.0D-06, r^2= 2.5D+00
   Bfn.  Coefficient  Atom+Function         Bfn.  Coefficient  Atom+Function  
  ----- ------------  ---------------      ----- ------------  ---------------
    11      1.367031  2 H  s                 13     -1.367027  3 H  s          
     9      1.269147  1 C  pz                 5      0.401224  1 C  pz         
    24     -0.201440  5 O  pz         
 
 Vector   14  Occ=0.000000D+00  E= 2.071164D-01
              MO Center= -6.0D-03, -1.9D-01,  1.1D-06, r^2= 2.7D+00
   Bfn.  Coefficient  Atom+Function         Bfn.  Coefficient  Atom+Function  
  ----- ------------  ---------------      ----- ------------  ---------------
    15     -0.820733  4 H  s                  7      0.785357  1 C  px         
     8      0.771467  1 C  py                26     -0.682956  6 H  s          
    11      0.591133  2 H  s                 13      0.591139  3 H  s          
    23      0.584785  5 O  py                22     -0.333229  5 O  px         
    19      0.286829  5 O  py                 4      0.267967  1 C  py         
 
 Vector   15  Occ=0.000000D+00  E= 6.953837D-01
              MO Center=  2.2D-02, -8.7D-01,  3.6D-07, r^2= 1.6D+00
   Bfn.  Coefficient  Atom+Function         Bfn.  Coefficient  Atom+Function  
  ----- ------------  ---------------      ----- ------------  ---------------
     8      1.393230  1 C  py                 4     -0.957502  1 C  py         
    21     -0.504394  5 O  s                  7      0.323737  1 C  px         
    26     -0.259241  6 H  s                 23      0.252615  5 O  py         
    10      0.241121  2 H  s                 12      0.241120  3 H  s          
    19     -0.194583  5 O  py                 3     -0.173289  1 C  px         
 
 Vector   16  Occ=0.000000D+00  E= 7.288798D-01
              MO Center= -2.3D-01, -5.6D-01,  6.7D-08, r^2= 1.8D+00
   Bfn.  Coefficient  Atom+Function         Bfn.  Coefficient  Atom+Function  
  ----- ------------  ---------------      ----- ------------  ---------------
     7      1.390871  1 C  px                 3     -0.738306  1 C  px         
    14     -0.568302  4 H  s                  8     -0.304128  1 C  py         
    25      0.280849  6 H  s                  4      0.266729  1 C  py         
    10      0.247221  2 H  s                 12      0.247221  3 H  s          
    15     -0.221024  4 H  s          
 
 Vector   17  Occ=0.000000D+00  E= 7.432029D-01
              MO Center=  1.5D-01, -6.0D-01, -7.8D-07, r^2= 1.8D+00
   Bfn.  Coefficient  Atom+Function         Bfn.  Coefficient  Atom+Function  
  ----- ------------  ---------------      ----- ------------  ---------------
     9      1.501636  1 C  pz                 5     -0.768684  1 C  pz         
    10      0.490340  2 H  s                 12     -0.490341  3 H  s          
    11      0.202537  2 H  s                 13     -0.202538  3 H  s          
    20     -0.187285  5 O  pz         
 
 Vector   18  Occ=0.000000D+00  E= 9.455264D-01
              MO Center= -5.2D-01,  2.7D-01,  7.6D-07, r^2= 2.4D+00
   Bfn.  Coefficient  Atom+Function         Bfn.  Coefficient  Atom+Function  
  ----- ------------  ---------------      ----- ------------  ---------------
    25      1.004752  6 H  s                  7     -0.862980  1 C  px         
    26     -0.773011  6 H  s                 15      0.506425  4 H  s          
    11     -0.499375  2 H  s                 13     -0.499377  3 H  s          
    10      0.462022  2 H  s                 12      0.462024  3 H  s          
     3      0.450316  1 C  px                18      0.259472  5 O  px         
 
 Vector   19  Occ=0.000000D+00  E= 1.010218D+00
              MO Center=  4.1D-01, -7.4D-01, -2.4D-06, r^2= 2.1D+00
   Bfn.  Coefficient  Atom+Function         Bfn.  Coefficient  Atom+Function  
  ----- ------------  ---------------      ----- ------------  ---------------
    15      1.104360  4 H  s                 14     -0.970950  4 H  s          
     7     -0.595532  1 C  px                26     -0.461714  6 H  s          
    10     -0.435067  2 H  s                 12     -0.435061  3 H  s          
    25      0.419169  6 H  s                  3      0.392061  1 C  px         
     4     -0.332824  1 C  py                 8      0.306905  1 C  py         
 

     ---------------------------------------------
      Total Density - Mulliken Population Analysis
     ---------------------------------------------

    Atom       Charge   Shell Charges
 -----------   ------   -------------------------------------------------------
    1 C    6     6.36   1.99  0.38  1.62  1.05  1.33
    2 H    1     0.83   0.48  0.35
    3 H    1     0.83   0.48  0.35
    4 H    1     0.79   0.48  0.31
    5 O    8     8.53   1.98  0.43  2.11  1.51  2.51
    6 H    1     0.67   0.43  0.24

     -------------------------------------------
      Total Density - Lowdin Population Analysis
     -------------------------------------------

    Atom       Charge   Shell Charges
 -----------   ------   -------------------------------------------------------
    1 C    6     6.12   1.97  0.43  1.51  0.60  1.60
    2 H    1     0.93   0.48  0.45
    3 H    1     0.93   0.48  0.45
    4 H    1     0.91   0.48  0.43
    5 O    8     8.33   1.98  0.59  2.07  1.08  2.61
    6 H    1     0.78   0.44  0.34

 center of mass
 --------------
 x =   0.04985669 y =   0.15570464 z =  -0.00000002

 moments of inertia (a.u.)
 ------------------
          79.345919548665          -1.583195469115           0.000000039911
          -1.583195469115          14.495498273491          -0.000003555185
           0.000000039911          -0.000003555185          82.355537231386
 
     Multipole analysis of the density
     ---------------------------------
 
     L   x y z        total         alpha         beta         nuclear
     -   - - -        -----         -----         ----         -------
     0   0 0 0     -0.000000     -9.000000     -9.000000     18.000000
 
     1   1 0 0     -0.629424     -0.320490     -0.320490      0.011556
     1   0 1 0     -0.415964     -0.494060     -0.494060      0.572155
     1   0 0 1     -0.000000      0.000000      0.000000     -0.000000
 
     2   2 0 0     -8.774333     -8.602494     -8.602494      8.430656
     2   1 1 0     -1.681933     -0.484573     -0.484573     -0.712787
     2   1 0 1     -0.000000     -0.000000     -0.000000     -0.000000
     2   0 2 0     -9.415302    -27.470078    -27.470078     45.524855
     2   0 1 1     -0.000000     -0.000001     -0.000001      0.000002
     2   0 0 2     -9.998536     -7.848443     -7.848443      5.698351
 
 Line search: 
     step= 1.00 grad=-2.5D-03 hess= 1.3D-03 energy=   -115.072879 mode=accept  
 new step= 1.00                   predicted energy=   -115.072879

          --------
          Step   1
          --------
 
 
                         Geometry "geometry" -> "geometry"
                         ---------------------------------
 
 Output coordinates in angstroms (scale by  1.889725989 to convert to a.u.)
 
  No.       Tag          Charge          X              Y              Z
 ---- ---------------- ---------- -------------- -------------- --------------
    1 C                    6.0000    -0.00404651    -0.68526697    -0.00000006
    2 H                    1.0000    -0.51544226    -1.07062617    -0.89322478
    3 H                    1.0000    -0.51544229    -1.07062600     0.89322474
    4 H                    1.0000     1.02192543    -1.05275017     0.00000001
    5 O                    8.0000     0.10877971     0.80847807     0.00000002
    6 H                    1.0000    -0.83088438     1.14055124     0.00000006
 
      Atomic Mass 
      ----------- 
 
      C                 12.000000
      H                  1.007825
      O                 15.994910
 

 Effective nuclear repulsion energy (a.u.)      38.9350383191

            Nuclear Dipole moment (a.u.) 
            ----------------------------
        X                 Y               Z
 ---------------- ---------------- ----------------
     0.0115558958     0.5721553685    -0.0000002604
 
 
                                 NWChem DFT Module
                                 -----------------
 
 
                                     meoh_pes
 
 


 Summary of "ao basis" -> "ao basis" (cartesian)
 ------------------------------------------------------------------------------
       Tag                 Description            Shells   Functions and Types
 ---------------- ------------------------------  ------  ---------------------
 H                           3-21G                   2        2   2s
 O                           3-21G                   5        9   3s2p
 C                           3-21G                   5        9   3s2p



  The DFT is already converged 

         Total DFT energy =   -115.072878996290

 
            General Information
            -------------------
          SCF calculation type: DFT
          Wavefunction type:  closed shell.
          No. of atoms     :     6
          No. of electrons :    18
           Alpha electrons :     9
            Beta electrons :     9
          Charge           :     0
          Spin multiplicity:     1
          Use of symmetry is: off; symmetry adaption is: off
          Maximum number of iterations:  99
          This is a Direct SCF calculation.
          AO basis - number of functions:    26
                     number of shells:    18
          Convergence on energy requested: 1.00D-06
          Convergence on density requested: 1.00D-05
          Convergence on gradient requested: 5.00D-04
 
              XC Information
              --------------
                         B3LYP Method XC Potential
                     Hartree-Fock (Exact) Exchange  0.200          
                        Slater Exchange Functional  0.800 local    
                    Becke 1988 Exchange Functional  0.720 non-local
              Lee-Yang-Parr Correlation Functional  0.810          
                  VWN I RPA Correlation Functional  0.190 local    
 
             Grid Information
             ----------------
          Grid used for XC integration:  fine      
          Radial quadrature: Mura-Knowles        
          Angular quadrature: Lebedev. 
          Tag              B.-S. Rad. Rad. Pts. Rad. Cut. Ang. Pts.
          ---              ---------- --------- --------- ---------
          C                   0.70       70           7.0       590
          H                   0.35       60           8.0       590
          O                   0.60       70           7.0       590
          Grid pruning is: on 
          Number of quadrature shells:   380
          Spatial weights used:  Erf1
 
          Convergence Information
          -----------------------
          Convergence aids based upon iterative change in 
          total energy or number of iterations. 
          Levelshifting, if invoked, occurs when the 
          HOMO/LUMO gap drops below (HL_TOL): 1.00D-02
          DIIS, if invoked, will attempt to extrapolate 
          using up to (NFOCK): 10 stored Fock matrices.

                    Damping( 0%)  Levelshifting(0.5)       DIIS
                  --------------- ------------------- ---------------
          dE  on:    start            ASAP                start   
          dE off:    2 iters         99 iters            99 iters 

 
      Screening Tolerance Information
      -------------------------------
          Density screening/tol_rho: 1.00D-10
          AO Gaussian exp screening on grid/accAOfunc:  14
          CD Gaussian exp screening on grid/accCDfunc:  20
          XC Gaussian exp screening on grid/accXCfunc:  20
          Schwarz screening/accCoul: 1.00D-08

 
 
                            NWChem DFT Gradient Module
                            --------------------------
 
 
                                     meoh_pes
 
 

  charge          =   0.00
  wavefunction    = closed shell



                         DFT ENERGY GRADIENTS

    atom               coordinates                        gradient
                 x          y          z           x          y          z
   1 C      -0.007647  -1.294967  -0.000000   -0.000529  -0.016894  -0.000000
   2 H      -0.974045  -2.023190  -1.687950   -0.000233  -0.000224   0.000034
   3 H      -0.974045  -2.023190   1.687950   -0.000233  -0.000223  -0.000034
   4 H       1.931159  -1.989409   0.000000   -0.000860  -0.000196   0.000000
   5 O       0.205564   1.527802   0.000000    0.002020   0.018821   0.000000
   6 H      -1.570144   2.155329   0.000000   -0.000165  -0.001284  -0.000000
 
                 ----------------------------------------
                 |  Time  |  1-e(secs)   |  2-e(secs)   |
                 ----------------------------------------
                 |  CPU   |       0.01   |       0.01   |
                 ----------------------------------------
                 |  WALL  |       0.01   |       0.00   |
                 ----------------------------------------

  Step       Energy      Delta E   Gmax     Grms     Xrms     Xmax   Walltime
  ---- ---------------- -------- -------- -------- -------- -------- --------
@    1    -115.07287900 -1.3D-03  0.00126  0.00041  0.03411  0.09024      4.7
                                                                    

  Internal coordinate gradient before constraints


                                Z-matrix (autoz)
                                -------- 

 Units are Angstrom for bonds and degrees for angles

  Constants are marked with an asterisk (*).
 
      Type          Name      I     J     K     L     M      Value     Gradient
      ----------- --------  ----- ----- ----- ----- ----- ---------- ----------
    1*Stretch      cccc        1     5                       1.49800    0.01763
    2 Stretch                  1     2                       1.09903    0.00016
    3 Stretch                  1     3                       1.09903    0.00016
    4 Stretch                  1     4                       1.08980   -0.00074
    5 Stretch                  5     6                       0.99661   -0.00027
    6 Bend                     1     5     6               105.14370   -0.00126
    7 Bend                     2     1     5               112.62417    0.00003
    8 Bend                     2     1     3               108.72814   -0.00023
    9 Bend                     2     1     4               108.65242   -0.00011
   10 Bend                     3     1     5               112.62415    0.00003
   11 Bend                     3     1     4               108.65242   -0.00011
   12 Bend                     4     1     5               105.38705    0.00040
   13 Torsion                  2     1     5     6          61.70165   -0.00013
   14 Torsion                  3     1     5     6         -61.70165    0.00013
   15 Torsion                  4     1     5     6        -180.00000    0.00000
 
  Internal coordinate gradient after constraints


                                Z-matrix (autoz)
                                -------- 

 Units are Angstrom for bonds and degrees for angles

  Constants are marked with an asterisk (*).
 
      Type          Name      I     J     K     L     M      Value     Gradient
      ----------- --------  ----- ----- ----- ----- ----- ---------- ----------
    1*Stretch      cccc        1     5                       1.49800    0.00000
    2 Stretch                  1     2                       1.09903    0.00016
    3 Stretch                  1     3                       1.09903    0.00016
    4 Stretch                  1     4                       1.08980   -0.00074
    5 Stretch                  5     6                       0.99661   -0.00027
    6 Bend                     1     5     6               105.14370   -0.00126
    7 Bend                     2     1     5               112.62417    0.00003
    8 Bend                     2     1     3               108.72814   -0.00023
    9 Bend                     2     1     4               108.65242   -0.00011
   10 Bend                     3     1     5               112.62415    0.00003
   11 Bend                     3     1     4               108.65242   -0.00011
   12 Bend                     4     1     5               105.38705    0.00040
   13 Torsion                  2     1     5     6          61.70165   -0.00013
   14 Torsion                  3     1     5     6         -61.70165    0.00013
   15 Torsion                  4     1     5     6        -180.00000    0.00000
 
 
                                 NWChem DFT Module
                                 -----------------
 
 
                                     meoh_pes
 
 


 Summary of "ao basis" -> "ao basis" (cartesian)
 ------------------------------------------------------------------------------
       Tag                 Description            Shells   Functions and Types
 ---------------- ------------------------------  ------  ---------------------
 H                           3-21G                   2        2   2s
 O                           3-21G                   5        9   3s2p
 C                           3-21G                   5        9   3s2p


  Caching 1-el integrals 
 
            General Information
            -------------------
          SCF calculation type: DFT
          Wavefunction type:  closed shell.
          No. of atoms     :     6
          No. of electrons :    18
           Alpha electrons :     9
            Beta electrons :     9
          Charge           :     0
          Spin multiplicity:     1
          Use of symmetry is: off; symmetry adaption is: off
          Maximum number of iterations:  99
          This is a Direct SCF calculation.
          AO basis - number of functions:    26
                     number of shells:    18
          Convergence on energy requested: 1.00D-06
          Convergence on density requested: 1.00D-05
          Convergence on gradient requested: 5.00D-04
 
              XC Information
              --------------
                         B3LYP Method XC Potential
                     Hartree-Fock (Exact) Exchange  0.200          
                        Slater Exchange Functional  0.800 local    
                    Becke 1988 Exchange Functional  0.720 non-local
              Lee-Yang-Parr Correlation Functional  0.810          
                  VWN I RPA Correlation Functional  0.190 local    
 
             Grid Information
             ----------------
          Grid used for XC integration:  fine      
          Radial quadrature: Mura-Knowles        
          Angular quadrature: Lebedev. 
          Tag              B.-S. Rad. Rad. Pts. Rad. Cut. Ang. Pts.
          ---              ---------- --------- --------- ---------
          C                   0.70       70           7.0       590
          H                   0.35       60           8.0       590
          O                   0.60       70           7.0       590
          Grid pruning is: on 
          Number of quadrature shells:   380
          Spatial weights used:  Erf1
 
          Convergence Information
          -----------------------
          Convergence aids based upon iterative change in 
          total energy or number of iterations. 
          Levelshifting, if invoked, occurs when the 
          HOMO/LUMO gap drops below (HL_TOL): 1.00D-02
          DIIS, if invoked, will attempt to extrapolate 
          using up to (NFOCK): 10 stored Fock matrices.

                    Damping( 0%)  Levelshifting(0.5)       DIIS
                  --------------- ------------------- ---------------
          dE  on:    start            ASAP                start   
          dE off:    2 iters         99 iters            99 iters 

 
      Screening Tolerance Information
      -------------------------------
          Density screening/tol_rho: 1.00D-10
          AO Gaussian exp screening on grid/accAOfunc:  14
          CD Gaussian exp screening on grid/accCDfunc:  20
          XC Gaussian exp screening on grid/accXCfunc:  20
          Schwarz screening/accCoul: 1.00D-08


 Loading old vectors from job with title :

meoh_pes

   Time after variat. SCF:      2.1

     ---------------------------------------------
      Total Density - Mulliken Population Analysis
     ---------------------------------------------

    Atom       Charge   Shell Charges
 -----------   ------   -------------------------------------------------------
    1 C    6     6.35   1.99  0.38  1.62  1.05  1.33
    2 H    1     0.83   0.48  0.35
    3 H    1     0.83   0.48  0.35
    4 H    1     0.79   0.48  0.31
    5 O    8     8.53   1.98  0.43  2.11  1.51  2.51
    6 H    1     0.67   0.43  0.24
   Time prior to 1st pass:      2.1

 Grid_pts file          = /cluster/work/users/marcof/82821/meoh/meoh_pes.gridpts.000
 Record size in doubles =  12289        No. of grid_pts per rec  =   3070
 Max. records in memory =      2        Max. recs in file   =   7916022


           Memory utilization after 1st SCF pass: 
           Heap Space remaining (MW):       35.41            35405768
          Stack Space remaining (MW):       58.98            58982084

   convergence    iter        energy       DeltaE   RMS-Dens  Diis-err    time
[...]
2.998 (-114.89364783286587, [-0.0005650872377276767, , 9.497796249884082e-08])
2.698 (-8.26599162881414e-07, 2.6877662183677486e-06, 2.5469179898429672e-06, -8.448463833105047e-07, 2.7869751239167906e-06, -2.5454155206106055e-06, 2.400553475445655e-07, 2.7759616538711174e-06, -3.075124614651992e-10, 0.004546037732445052, 0.07933224666912739, -9.346341582305005e-08, 4.0322826262984e-06, 3.633001030973332e-06, 2.0442072432347628e-08])
2.198 (-114.98014604357287, [-0.003991808873243699, -0.07568230275192782, 3.4754823389518635e-07, 3.790730599292913e-06, 5.37749550021116e-07, -8.481064660004201e-07, 3.815144671390214e-06, 2.616148572498478e-07, 8.268541956402142e-07, -1.0024251162199516e-06, 1.146052694363242e-06, 3.175051538490661e-08, 0.003984011911096125-0.04018866124657671, 7.408113219838948e-06, 4.153278857069176e-06, -114.91968930568855, [-0.0014606622118718549, -0.052050890873604316, -0.0001900717199676931, -0.03329674063521732, 4.2756810900826e-05, 2.5649111741188335e-06, -1.0271291599160681e-06, -1.6929297025597423e-05, -1.4471792964446117e-05, -3.854216474218075e-06, 2.6704852965075965e-07, 1.0437864476270375e-05, 2.7603457188329905e-06, -2.320546358947702e-05, 0.00019152567102795337, 0.03330559160752971, -2.6941091728375707e-06, 1.5066252273543412e-08, -6.729972395737305e-06, -1.949896419336978e-07])
3.298 (-114.87379529745972, [-3.801698725790226e-05, -0.03003041582044817, -2.8587431022058813e-05, -3.7930721030754455e-07, 5.0088124664282585e-06, 1.0819905160941445e-05, 1.128260510641077e-05, 3.3704413874638406e-06, 1.6573333651570543e-06, -1.7069686956527885e-05, -4.671432567240202e-06, 1.6246501916156566e-05, 5.2204587201593045e-05, 0.03003045256011424, -7.220464139825046e-08, -8.02121088350205e-06, -3.7445609534572655e-06, -6.410477900589749e-08])
1.2635449553616979e-06, 2.4942218013190853e-07, 3.6244391142525867e-07-9.421334063530951e-06, -1.0319514661710771e-05, -7.754941590637499e-061.5066252273543412e-08, -6.729972395737305e-06, -1.949896419336978e-07])
3.298 (-114.87379529745972, [-3.801698725790226e-05, -0.03003041582044817, -2.8587431022058813e-05, -3.7930721030754455e-07, 5.0088124664282585e-06, 1.0819905160941445e-05, 1.128260510641077e-05, 3.3704413874638406e-06, 1.6573333651570543e-06, -1.7069686956527885e-05, -4.671432567240202e-06, 1.6246501916156566e-05, 5.2204587201593045e-05, 0.03003045256011424, -7.220464139825046e-08, -8.02121088350205e-06, -3.7445609534572655e-06, -6.410477900589749e-08])
, 3.885144931546278e-06, -3.7741022969328686e-06, -1.96263718960088e-06, , 4.343427642827802e-07, -5.520440017031669e-06, -1.161591290848446e-05-9.294819970352003e-06, 7.390527267225888e-06, 4.9291866200118495e-06, 5.280289842670566e-06, 2.9954650126833883e-05, 0.0003586903230892169, 0.03667339082973486, -1.2492188623534667e-06, 5.084453378961795e-06, 1.41399666531844e-06, -2.567253635821575e-07])
3.198 (-114.87977710379982, [-0.0001900717199676931, -0.03329674063521732, 4.2756810900826e-05, 2.5649111741188335e-06, -1.0271291599160681e-06, -1.6929297025597423e-05, -1.4471792964446117e-05, -3.854216474218075e-06, 2.6704852965075965e-07, 1.0437864476270375e-05, 2.7603457188329905e-06, -2.320546358947702e-05, 0.00019152567102795337, 0.03330559160752971, -2.6941091728375707e-06, 1.5066252273543412e-08, -6.729972395737305e-06, -1.949896419336978e-07])
3.298 (-114.87379529745972, [-3.801698725790226e-05, -0.03003041582044817, -2.8587431022058813e-05, -3.7930721030754455e-07, 5.0088124664282585e-06, 1.0819905160941445e-05, 1.128260510641077e-05, 3.3704413874638406e-06, 1.6573333651570543e-06, -1.7069686956527885e-05, -4.671432567240202e-06, 1.6246501916156566e-05, 5.2204587201593045e-05, 0.03003045256011424, -7.220464139825046e-08, -8.02121088350205e-06, -3.7445609534572655e-06, -6.410477900589749e-08])
-3.1201393819579176e-06, -4.95047506817234e-06, 0.0005648303184326853, 0.04018829826503174, 4.142194589940029e-06, 8.015287150664463e-07, -6.697451256445358e-06-1.7069686956527885e-05, -4.671432567240202e-06, 1.6246501916156566e-05, 5.2204587201593045e-05, 0.03003045256011424, -7.220464139825046e-08, -8.02121088350205e-06, -3.7445609534572655e-06, -6.410477900589749e-08])
, 9.52772109400328e-07, -2.2961662864695587e-06, -1.665568960770511e-06, 6.3635337969496556e-06, 0.0014849744507918483, 0.05212113248310832])
3.298 (-114.87379529745972, [-3.801698725790226e-05, -0.03003041582044817, -2.8587431022058813e-05, -3.7930721030754455e-07, 5.0088124664282585e-06, 1.0819905160941445e-05, 1.128260510641077e-05, 3.3704413874638406e-06, 1.6573333651570543e-06, -1.7069686956527885e-05, -4.671432567240202e-06, 1.6246501916156566e-05, 5.2204587201593045e-05, 0.03003045256011424, -7.220464139825046e-08, -8.02121088350205e-06, -3.7445609534572655e-06, -6.410477900589749e-08])
, 1.1426985653288689e-07])
3.098 (, -1.388125785324086e-06, -9.273812956345218e-06, , -4.671432567240202e-06, 1.6246501916156566e-05, 5.2204587201593045e-05, 0.03003045256011424, -7.220464139825046e-08, -8.02121088350205e-06, -3.7445609534572655e-06, -6.410477900589749e-08])
-114.8863871937743, [-0.000367820431135521, -0.0366681720317861, -4.4173303747920695e-05, -1.3061130340278883e-07])
2.798 (, [-3.801698725790226e-05, -0.03003041582044817, -2.8587431022058813e-05, -3.7930721030754455e-07, 5.0088124664282585e-06, 1.0819905160941445e-05, 1.128260510641077e-05, 3.3704413874638406e-06, 1.6573333651570543e-06, -1.7069686956527885e-05, -4.671432567240202e-06, 1.6246501916156566e-05, 5.2204587201593045e-05, 0.03003045256011424, -7.220464139825046e-08, -8.02121088350205e-06, -3.7445609534572655e-06, -6.410477900589749e-08])
-5.0511924850520865e-05, -1.152587423516871e-05, -2.6182644864980453e-06, -114.91025169584515, [-0.0011090998962672849, -0.04782287489279245, -3.7930721030754455e-07, 5.0088124664282585e-06, 1.0819905160941445e-05, 1.128260510641077e-05, 3.3704413874638406e-06, 1.6573333651570543e-06, -1.7069686956527885e-05, -4.671432567240202e-06, 1.6246501916156566e-05, 5.2204587201593045e-05, 0.03003045256011424, -7.220464139825046e-08, -8.02121088350205e-06, -3.7445609534572655e-06, -6.410477900589749e-08])
1.4672691682149352e-05, 1.0642342286454332e-05, -9.294819970352003e-06, , -9.08163032115084e-07, -1.7707811026529408e-06, -2.8587431022058813e-05, -3.7930721030754455e-07, 5.0088124664282585e-06, 1.0819905160941445e-05, 1.128260510641077e-05, 3.3704413874638406e-06, 1.6573333651570543e-06, -1.7069686956527885e-05, -4.671432567240202e-06, 1.6246501916156566e-05, 5.2204587201593045e-05, 0.03003045256011424, -7.220464139825046e-08, -8.02121088350205e-06, -3.7445609534572655e-06, -6.410477900589749e-08])
7.390527267225888e-06, 4.9291866200118495e-06, 5.280289842670566e-06, -5.569042288537662e-07, -3.170224226245466e-06, -1.2896447622451346e-06, -1.01742005286648e-06, 5.0088124664282585e-06, 1.0819905160941445e-05, 1.128260510641077e-05, 3.3704413874638406e-06, 1.6573333651570543e-06, -1.7069686956527885e-05, -4.671432567240202e-06, 1.6246501916156566e-05, 5.2204587201593045e-05, 0.03003045256011424, -7.220464139825046e-08, -8.02121088350205e-06, -3.7445609534572655e-06, -6.410477900589749e-08])
2.9954650126833883e-05, 0.0003586903230892169, 0.03667339082973486, -1.2492188623534667e-06, 3.686578936956675e-06, 4.09587535857292e-06, -1.747098742281572e-06, 1.0819905160941445e-05, 1.128260510641077e-05, 3.3704413874638406e-06, 1.6573333651570543e-06, -1.7069686956527885e-05, -4.671432567240202e-06, 1.6246501916156566e-05, 5.2204587201593045e-05, 0.03003045256011424, -7.220464139825046e-08, -8.02121088350205e-06, -3.7445609534572655e-06, -6.410477900589749e-08])
, 5.084453378961795e-06, 1.41399666531844e-06, -2.567253635821575e-07, 6.62963731485621e-07, 0.001111069021965283, 0.04782808380429852)
])
3.198 (-114.87977710379982, , -2.5104334138410594e-07, -3.0045751951424116e-06, -1.8874884831800165e-06, 0.07568487035977317, -3.714178700970727e-07, 1.1935119896833157e-06, -4.5130249462232985e-06, 1.3371391680546752e-08])
2.298 (-114.96623745092391, [-0.003399403759662023, -0.07124085050362072, 4.637744423875302e-07, 7.690690797118593e-07, 7.07003898856029e-07, [-0.0001900717199676931, -0.03329674063521732, 4.2756810900826e-05, 2.5649111741188335e-06, -2.0112069134960804e-08])
2.898 (1.781476821061112e-07, 7.829340964854437e-07, 3.4729647587286583e-07, , -1.0271291599160681e-06, -1.6929297025597423e-05, -1.4471792964446117e-05-114.90158888611973, [-0.0008186108389644058, -0.04388076013733164, -2.1515440468133917e-07, 2.3014688899092306e-07, 6.667964802878346e-07, 1.1578942517073885e-08, -3.854216474218075e-06, 2.6704852965075965e-07, 1.0437864476270375e-054.918980803873769e-06, 1.9297948665453202e-07, -5.779255812677492e-07, 0.0033964344074607633, 0.07123828050146053, -4.453512925337315e-07, , 2.7603457188329905e-06, -2.320546358947702e-05, 0.00019152567102795337, -2.06022132109851e-06, -2.5848497580416296e-06, 1.053053313809088e-061.1872021377645758e-06, 8.489053052208873e-07, 7.004632321383746e-09])
, 0.03330559160752971, -2.6941091728375707e-06, 1.5066252273543412e-08, -4.0523843031214923e-08, 7.622996888390077e-06, -1.4568381477113312e-062.398 (-114.95321521240919, [-0.0028374652623293084, , -6.729972395737305e-06, -1.949896419336978e-07])
, -3.405270289484993e-06, 0.0008091647338874797, 0.0438828984258148-0.06640358894279708, -5.133953662938353e-07, -6.313002942487378e-07, 3.298 (-114.87379529745972, [-3.801698725790226e-05, 5.182163449162529e-07, 4.214978463951136e-06, -1.1565780665967473e-068.464449535693086e-07, 1.7566086628617583e-06, -8.055378099280919e-07, 2.085572760754384e-06, -0.03003041582044817, -2.8587431022058813e-05, -3.7930721030754455e-07, 5.0088124664282585e-06, 6.881830365629816e-08])
2.998 (, -1.775680621873832e-06, 1.9930726969930035e-06, 7.159261866188094e-07, 1.0819905160941445e-05, 1.128260510641077e-05, 3.3704413874638406e-06, -114.89364783286587, [-0.0005650872377276767, -0.04018866124657671, , -1.5319503394642777e-07, 0.002836975938391828, 0.06639914855892787, 6.35824350536234e-07, 1.6573333651570543e-06, -1.7069686956527885e-05, -4.671432567240202e-06, 1.6246501916156566e-057.408113219838948e-06, 4.153278857069176e-06, 1.2635449553616979e-06-6.691065518316108e-08, 7.924399677214367e-07, 4.983801050446017e-08], 5.2204587201593045e-05, 0.03003045256011424, -7.220464139825046e-08, 2.4942218013190853e-07, 3.6244391142525867e-07, 3.885144931546278e-06)
2.498 (-114.94112445177524, [, -8.02121088350205e-06, -3.7445609534572655e-06, -6.410477900589749e-08, -3.7741022969328686e-06, -1.96263718960088e-06, -3.1201393819579176e-06-0.0023273182234640755, -0.06145833559799692, 3.5860061613294516e-07, 1.7031796813171685e-07])
, -4.95047506817234e-06, 0.0005648303184326853, 0.04018829826503174, 3.6298756622005213e-07, -8.217010140643133e-07, 6.092075277019937e-07, , 9.52772109400328e-07, -2.2961662864695587e-06, -1.665568960770511e-06-1.2372333725377271e-06, 1.075340911760314e-06, 2.7778098977415677e-06, , 1.1426985653288689e-07])
3.098 (-1.5612485861279946e-06, 5.004056651065983e-07, 0.0023301884225510883, 0.06146619401724916-114.8863871937743, [-0.000367820431135521, -0.0366681720317861, , -1.0670888392120235e-06, -6.427534482322805e-06, -5.4229248581672e-06, -5.0511924850520865e-05, -1.152587423516871e-05, -2.6182644864980453e-06, 1.4672691682149352e-05, -4.5557339843876454e-08])
2.598 (-114.929961609066141.0642342286454332e-05, -9.294819970352003e-06, 7.390527267225888e-06, , [-0.0018612492513306045, -0.056647355815749464, 1.6973039157856118e-064.9291866200118495e-06, 5.280289842670566e-06, 2.9954650126833883e-05, 2.031178516895271e-06, 1.1670900563615083e-06, 2.0493911614960503e-06, 0.0003586903230892169, 0.03667339082973486, -1.2492188623534667e-06, 5.777327061334825e-07, 3.668439603511653e-06, -3.1970878595632968e-06, 5.084453378961795e-06, 1.41399666531844e-06, -2.567253635821575e-07, 3.3009310647647006e-06, 1.761526770765326e-06, -1.793865739915515e-06, ])
3.198 (-114.87977710379982, 0.0018515783994877133, 0.05663188999332611, 1.149280558998602e-06, 3.7610095548201716e-06[-0.0001900717199676931, -0.03329674063521732, 4.2756810900826e-05, 8.868765992025435e-06, 9.497796249884082e-08])
2.698, 2.5649111741188335e-06, -1.0271291599160681e-06, -1.6929297025597423e-05 (-114.91968930568855, [-0.0014606622118718549, -0.052050890873604316, -1.4471792964446117e-05, -3.854216474218075e-06, 2.6704852965075965e-07, -9.421334063530951e-06, -1.0319514661710771e-05, -7.754941590637499e-06, 1.0437864476270375e-05, 2.7603457188329905e-06, -2.320546358947702e-05, 4.343427642827802e-07, -5.520440017031669e-06, -1.161591290848446e-05, , 0.00019152567102795337, 0.03330559160752971, -2.6941091728375707e-064.142194589940029e-06, 8.015287150664463e-07, -6.697451256445358e-06, , 1.5066252273543412e-08, -6.729972395737305e-06, -1.949896419336978e-076.3635337969496556e-06, 0.0014849744507918483, 0.05212113248310832, -1.388125785324086e-06])
3.298 (-114.87379529745972, , -9.273812956345218e-06, -4.4173303747920695e-05, -1.3061130340278883e-07[-3.801698725790226e-05, -0.03003041582044817, -2.8587431022058813e-05])
2.798 (-114.91025169584515, [, -3.7930721030754455e-07, 5.0088124664282585e-06, 1.0819905160941445e-05-0.0011090998962672849, -0.04782287489279245, -9.08163032115084e-07, , 1.128260510641077e-05, 3.3704413874638406e-06, 1.6573333651570543e-06-1.7707811026529408e-06, -5.569042288537662e-07, -3.170224226245466e-06, -1.2896447622451346e-06, -1.7069686956527885e-05, -4.671432567240202e-06, 1.6246501916156566e-05, -1.01742005286648e-06, 3.686578936956675e-06, 4.09587535857292e-06, , 5.2204587201593045e-05, 0.03003045256011424, -7.220464139825046e-08-1.747098742281572e-06, 6.62963731485621e-07, 0.001111069021965283, , -8.02121088350205e-06, -3.7445609534572655e-06, -6.410477900589749e-080.04782808380429852, -2.5104334138410594e-07, -3.0045751951424116e-06, -1.8874884831800165e-06])
, -2.0112069134960804e-08])
2.898 (-114.90158888611973, [-0.0008186108389644058, -0.04388076013733164, 4.918980803873769e-06, 1.9297948665453202e-07, -5.779255812677492e-07, -2.06022132109851e-06, -2.5848497580416296e-06, 1.053053313809088e-06, -4.0523843031214923e-08, 7.622996888390077e-06, -1.4568381477113312e-06, -3.405270289484993e-06, 0.0008091647338874797, 0.0438828984258148, 5.182163449162529e-07, 4.214978463951136e-06, -1.1565780665967473e-06, 6.881830365629816e-08])
2.998 (-114.89364783286587, [-0.0005650872377276767, -0.04018866124657671, 7.408113219838948e-06, 4.153278857069176e-06, 1.2635449553616979e-06, 2.4942218013190853e-07, 3.6244391142525867e-07, 3.885144931546278e-06, -3.7741022969328686e-06, -1.96263718960088e-06, -3.1201393819579176e-06, -4.95047506817234e-06, 0.0005648303184326853, 0.04018829826503174, 9.52772109400328e-07, -2.2961662864695587e-06, -1.665568960770511e-06, 1.1426985653288689e-07])
3.098 (-114.8863871937743, [-0.000367820431135521, -0.0366681720317861, -5.0511924850520865e-05, -1.152587423516871e-05, -2.6182644864980453e-06, 1.4672691682149352e-05, 1.0642342286454332e-05, -9.294819970352003e-06, 7.390527267225888e-06, 4.9291866200118495e-06, 5.280289842670566e-06, 2.9954650126833883e-05, 0.0003586903230892169, 0.03667339082973486, -1.2492188623534667e-06, 5.084453378961795e-06, 1.41399666531844e-06, -2.567253635821575e-07])
3.198 (-114.87977710379982, [-0.0001900717199676931, -0.03329674063521732, 4.2756810900826e-05, 2.5649111741188335e-06, -1.0271291599160681e-06, -1.6929297025597423e-05, -1.4471792964446117e-05, -3.854216474218075e-06, 2.6704852965075965e-07, 1.0437864476270375e-05, 2.7603457188329905e-06, -2.320546358947702e-05, 0.00019152567102795337, 0.03330559160752971, -2.6941091728375707e-06, 1.5066252273543412e-08, -6.729972395737305e-06, -1.949896419336978e-07])
3.298 (-114.87379529745972, [-3.801698725790226e-05, -0.03003041582044817, -2.8587431022058813e-05, -3.7930721030754455e-07, 5.0088124664282585e-06, 1.0819905160941445e-05, 1.128260510641077e-05, 3.3704413874638406e-06, 1.6573333651570543e-06, -1.7069686956527885e-05, -4.671432567240202e-06, 1.6246501916156566e-05, 5.2204587201593045e-05, 0.03003045256011424, -7.220464139825046e-08, -8.02121088350205e-06, -3.7445609534572655e-06, -6.410477900589749e-08])
 Summary of allocated global arrays
-----------------------------------
  No active global arrays



                         GA Statistics for process    0
                         ------------------------------

       create   destroy   get      put      acc     scatter   gather  read&inc
calls: 9427     9494     4.30e+04 1.53e+04 8892        0        0     9187     
number of processes/call 3.31e+00 2.61e+00 6.66e+00 0.00e+00 0.00e+00
bytes total:             5.87e+07 1.01e+07 2.56e+07 0.00e+00 0.00e+00 7.35e+04
bytes remote:            4.16e+07 5.17e+06 1.78e+07 0.00e+00 0.00e+00 0.00e+00
Max memory consumed for GA by this process: 47480 bytes
 
MA_summarize_allocated_blocks: starting scan ...
heap block 'gridpts', handle 97, address 0x1791ca58:
	type of elements:		double precision
	number of elements:		23550407
	address of client space:	0x1791cac0
	index for client space:		14184005
	total number of bytes:		188403368
MA_summarize_allocated_blocks: scan completed: 1 heap block, 0 stack blocks
MA usage statistics:

	allocation statistics:
					      heap	     stack
					      ----	     -----
	current number of blocks	         1	         0
	maximum number of blocks	        24	        51
	current total bytes		 188403368	         0
	maximum total bytes		 188613544	  22511240
	maximum total K-bytes		    188614	     22512
	maximum total M-bytes		       189	        23
 
 
                                     CITATION
                                     --------
                Please cite the following reference when publishing
                           results obtained with NWChem:
 
                 M. Valiev, E.J. Bylaska, N. Govind, K. Kowalski,
              T.P. Straatsma, H.J.J. van Dam, D. Wang, J. Nieplocha,
                        E. Apra, T.L. Windus, W.A. de Jong
                 "NWChem: a comprehensive and scalable open-source
                  solution for large scale molecular simulations"
                      Comput. Phys. Commun. 181, 1477 (2010)
                           doi:10.1016/j.cpc.2010.04.018
 
                                      AUTHORS
                                      -------
          E. Apra, E. J. Bylaska, W. A. de Jong, N. Govind, K. Kowalski,
       T. P. Straatsma, M. Valiev, H. J. J. van Dam, D. Wang, T. L. Windus,
        J. Hammond, J. Autschbach, K. Bhaskaran-Nair, J. Brabec, K. Lopata,
       S. A. Fischer, S. Krishnamoorthy, W. Ma, M. Klemm, O. Villa, Y. Chen,
    V. Anisimov, F. Aquino, S. Hirata, M. T. Hackler, T. Risthaus, M. Malagoli,
       A. Marenich, A. Otero-de-la-Roza, J. Mullin, P. Nichols, R. Peverati,
     J. Pittner, Y. Zhao, P.-D. Fan, A. Fonari, M. Williamson, R. J. Harrison,
       J. R. Rehr, M. Dupuis, D. Silverstein, D. M. A. Smith, J. Nieplocha,
        V. Tipparaju, M. Krishnan, B. E. Van Kuiken, A. Vazquez-Mayagoitia,
        L. Jensen, M. Swart, Q. Wu, T. Van Voorhis, A. A. Auer, M. Nooijen,
      L. D. Crosby, E. Brown, G. Cisneros, G. I. Fann, H. Fruchtl, J. Garza,
        K. Hirao, R. A. Kendall, J. A. Nichols, K. Tsemekhman, K. Wolinski,
     J. Anchell, D. E. Bernholdt, P. Borowski, T. Clark, D. Clerc, H. Dachsel,
   M. J. O. Deegan, K. Dyall, D. Elwood, E. Glendening, M. Gutowski, A. C. Hess,
         J. Jaffe, B. G. Johnson, J. Ju, R. Kobayashi, R. Kutteh, Z. Lin,
   R. Littlefield, X. Long, B. Meng, T. Nakajima, S. Niu, L. Pollack, M. Rosing,
   K. Glaesemann, G. Sandrone, M. Stave, H. Taylor, G. Thomas, J. H. van Lenthe,
                               A. T. Wong, Z. Zhang.

 Total times  cpu:       12.0s     wall:       24.0s
