 argument  1 = propene.nw
                                         
                                         


              Northwest Computational Chemistry Package (NWChem) 6.3
              ------------------------------------------------------


                    Environmental Molecular Sciences Laboratory
                       Pacific Northwest National Laboratory
                                Richland, WA 99352

                              Copyright (c) 1994-2012
                       Pacific Northwest National Laboratory
                            Battelle Memorial Institute

             NWChem is an open-source computational chemistry package
                        distributed under the terms of the
                      Educational Community License (ECL) 2.0
             A copy of the license is included with this distribution
                              in the LICENSE.TXT file

                                  ACKNOWLEDGMENT
                                  --------------

            This software and its documentation were developed at the
            EMSL at Pacific Northwest National Laboratory, a multiprogram
            national laboratory, operated for the U.S. Department of Energy
            by Battelle under Contract Number DE-AC05-76RL01830. Support
            for this work was provided by the Department of Energy Office
            of Biological and Environmental Research, Office of Basic
            Energy Sciences, and the Office of Advanced Scientific Computing.


           Job information
           ---------------

    hostname        = nid01056
    program         = nwchem
    date            = Fri Aug 19 08:48:19 2016

    compiled        = Thu_May_19_09:35:50_2016
    source          = /work/lorand/build/nwchem-6.3r2-zmatrix-mod20140401-gnu
    nwchem branch   = 6.3
    nwchem revision = 24652
    ga revision     = 10379
    input           = propene.nw
    prefix          = propene.
    data base       = ./propene.db
    status          = startup
    nproc           =       64
    time left       =     -1s



           Memory information
           ------------------

    heap     =   62259201 doubles =    475.0 Mbytes
    stack    =   62259201 doubles =    475.0 Mbytes
    global   =  124518400 doubles =    950.0 Mbytes (distinct from heap & stack)
    total    =  249036802 doubles =   1900.0 Mbytes
    verify   = yes
    hardfail = no 


           Directory information
           ---------------------

  0 permanent = .
  0 scratch   = .




                                NWChem Input Module
                                -------------------


                                  Step3: hessian
                                  --------------


                   NWChem Nuclear Hessian and Frequency Analysis
                   ---------------------------------------------



                              NWChem Analytic Hessian
                              -----------------------


                                 NWChem DFT Module
                                 -----------------


               WARNING: doctored file with artificially crazy frequency values


  Caching 1-el integrals 

            General Information
            -------------------
          SCF calculation type: DFT
          Wavefunction type:  closed shell.
          No. of atoms     :     9
          No. of electrons :    24
           Alpha electrons :    12
            Beta electrons :    12
          Charge           :     0
          Spin multiplicity:     1
          Use of symmetry is: off; symmetry adaption is: off
          Maximum number of iterations:  30
          This is a Direct SCF calculation.
          AO basis - number of functions:    39
                     number of shells:    27
          Convergence on energy requested: 1.00D-08
          Convergence on density requested: 1.00D-07
          Convergence on gradient requested: 1.00D-06

              XC Information
              --------------
                         PBE0 Method XC Functional
                     Hartree-Fock (Exact) Exchange  0.250          
          PerdewBurkeErnzerhof Exchange Functional  0.750          
            Perdew 1991 LDA Correlation Functional  1.000 local    
           PerdewBurkeErnz. Correlation Functional  1.000 non-local

             Grid Information
             ----------------
          Grid used for XC integration:  xfine     
          Radial quadrature: Mura-Knowles        
          Angular quadrature: Lebedev. 
          Tag              B.-S. Rad. Rad. Pts. Rad. Cut. Ang. Pts.
          ---              ---------- --------- --------- ---------
          C                   0.70      100          10.0      1454
          H                   0.35      100          11.0      1202
          Grid pruning is: on 
          Number of quadrature shells:   900
          Spatial weights used:  Erf1

          Convergence Information
          -----------------------
          Convergence aids based upon iterative change in 
          total energy or number of iterations. 
          Levelshifting, if invoked, occurs when the 
          HOMO/LUMO gap drops below (HL_TOL): 1.00D-02
          DIIS, if invoked, will attempt to extrapolate 
          using up to (NFOCK): 10 stored Fock matrices.

                    Damping( 0%)  Levelshifting(0.5)       DIIS
                  --------------- ------------------- ---------------
          dE  on:    start            ASAP                start   
          dE off:    2 iters         30 iters           150 iters 


      Screening Tolerance Information
      -------------------------------
          Density screening/tol_rho: 1.00D-11
          AO Gaussian exp screening on grid/accAOfunc:  18
          CD Gaussian exp screening on grid/accCDfunc:  20
          XC Gaussian exp screening on grid/accXCfunc:  20
          Schwarz screening/accCoul: 1.00D-09


 Loading old vectors from job with title :

Step2: SP with DFT

   Time after variat. SCF:      6.0
   Time prior to 1st pass:      6.0

           Memory utilization after 1st SCF pass: 
           Heap Space remaining (MW):       62.26            62256387
          Stack Space remaining (MW):       62.26            62258769

   convergence    iter        energy       DeltaE   RMS-Dens  Diis-err    time
 ---------------- ----- ----------------- --------- --------- ---------  ------
 d= 0,ls=0.0,diis     1   -117.7307432839 -1.87D+02  1.67D-09  1.85D-15     6.5
 d= 0,ls=0.0,diis     2   -117.7307432839 -1.14D-13  9.89D-10  2.08D-15     6.9


         Total DFT energy =     -117.730743283866
      One electron energy =     -294.737106719562
           Coulomb energy =      125.590321796993
    Exchange-Corr. energy =      -18.277983538680
 Nuclear repulsion energy =       69.695673464946

    Dispersion correction =       -0.001648287564

 Numeric. integr. density =       24.000000021860

     Total iterative time =      0.8s



                       DFT Final Molecular Orbital Analysis
                       ------------------------------------

 Vector    2  Occ=2.000000D+00  E=-1.022759D+01
              MO Center= -1.2D+00,  5.0D-01, -1.2D-05, r^2= 2.8D-02
   Bfn.  Coefficient  Atom+Function         Bfn.  Coefficient  Atom+Function  
  ----- ------------  ---------------      ----- ------------  ---------------
     1      0.997689  1 C  s          

 Vector    3  Occ=2.000000D+00  E=-1.022222D+01
              MO Center=  9.4D-01, -8.2D-01, -1.2D-05, r^2= 2.8D-02
   Bfn.  Coefficient  Atom+Function         Bfn.  Coefficient  Atom+Function  
  ----- ------------  ---------------      ----- ------------  ---------------
    25      0.997777  6 C  s          

 Vector    4  Occ=2.000000D+00  E=-8.002597D-01
              MO Center=  1.0D-01,  3.6D-02,  1.7D-05, r^2= 1.7D+00
   Bfn.  Coefficient  Atom+Function         Bfn.  Coefficient  Atom+Function  
  ----- ------------  ---------------      ----- ------------  ---------------
    11      0.314564  2 C  s                 26      0.246845  6 C  s          
    27      0.234041  6 C  s                  2      0.225958  1 C  s          
    12      0.175007  2 C  s                 10     -0.154534  2 C  s          
     3      0.153080  1 C  s          

 Vector    5  Occ=2.000000D+00  E=-6.985977D-01
              MO Center=  1.6D-02, -1.6D-01,  3.1D-05, r^2= 2.7D+00
   Bfn.  Coefficient  Atom+Function         Bfn.  Coefficient  Atom+Function  
  ----- ------------  ---------------      ----- ------------  ---------------
    26     -0.300675  6 C  s                 27     -0.299657  6 C  s          
     2      0.292705  1 C  s                  3      0.232730  1 C  s          
    13     -0.179489  2 C  px                25      0.150857  6 C  s          

 Vector    6  Occ=2.000000D+00  E=-5.732444D-01
              MO Center= -2.0D-01,  3.4D-01, -1.2D-05, r^2= 2.7D+00
   Bfn.  Coefficient  Atom+Function         Bfn.  Coefficient  Atom+Function  
  ----- ------------  ---------------      ----- ------------  ---------------
    11      0.275431  2 C  s                 12      0.249302  2 C  s          
     2     -0.200807  1 C  s                  4      0.200273  1 C  px         
    23      0.189634  5 H  s                  3     -0.184769  1 C  s          
    29      0.170148  6 C  py         

 Vector    7  Occ=2.000000D+00  E=-4.754371D-01
              MO Center= -2.3D-01,  3.4D-01, -1.2D-05, r^2= 2.9D+00
   Bfn.  Coefficient  Atom+Function         Bfn.  Coefficient  Atom+Function  
  ----- ------------  ---------------      ----- ------------  ---------------
     5      0.311044  1 C  py                28      0.288239  6 C  px         
    14      0.271737  2 C  py                 4     -0.209094  1 C  px         
    19      0.194352  3 H  s                 13      0.153514  2 C  px         

 Vector    8  Occ=2.000000D+00  E=-4.296711D-01
              MO Center= -2.7D-01, -1.9D-01, -1.0D-03, r^2= 2.7D+00
   Bfn.  Coefficient  Atom+Function         Bfn.  Coefficient  Atom+Function  
  ----- ------------  ---------------      ----- ------------  ---------------
    29     -0.317196  6 C  py                 5      0.295465  1 C  py         
    13     -0.294175  2 C  px                 4      0.265237  1 C  px         
    21     -0.203542  4 H  s          

 Vector    9  Occ=2.000000D+00  E=-4.269714D-01
              MO Center=  7.5D-01, -9.3D-01,  9.9D-04, r^2= 1.4D+00
   Bfn.  Coefficient  Atom+Function         Bfn.  Coefficient  Atom+Function  
  ----- ------------  ---------------      ----- ------------  ---------------
    30      0.512104  6 C  pz                36      0.219327  8 H  s          
    38     -0.218707  9 H  s                 15      0.170822  2 C  pz         

 Vector   10  Occ=2.000000D+00  E=-3.754740D-01
              MO Center=  5.4D-01, -1.5D-01,  5.2D-06, r^2= 2.8D+00
   Bfn.  Coefficient  Atom+Function         Bfn.  Coefficient  Atom+Function  
  ----- ------------  ---------------      ----- ------------  ---------------
    28      0.394674  6 C  px                13     -0.336370  2 C  px         
     4      0.328428  1 C  px                34      0.233231  7 H  s          
    35      0.174733  7 H  s          

 Vector   11  Occ=2.000000D+00  E=-3.626638D-01
              MO Center= -1.6D-01,  2.1D-01,  1.1D-06, r^2= 2.8D+00
   Bfn.  Coefficient  Atom+Function         Bfn.  Coefficient  Atom+Function  
  ----- ------------  ---------------      ----- ------------  ---------------
    14      0.390213  2 C  py                29     -0.350094  6 C  py         
     5     -0.306698  1 C  py                23      0.177132  5 H  s          
    19     -0.175699  3 H  s                 21      0.153867  4 H  s          

 Vector   12  Occ=2.000000D+00  E=-2.542444D-01
              MO Center= -4.9D-01,  3.7D-01,  1.4D-05, r^2= 2.0D+00
   Bfn.  Coefficient  Atom+Function         Bfn.  Coefficient  Atom+Function  
  ----- ------------  ---------------      ----- ------------  ---------------
     6      0.488325  1 C  pz                15      0.450207  2 C  pz         
     9      0.213718  1 C  pz                18      0.209905  2 C  pz         
    30     -0.150848  6 C  pz         

 Vector   13  Occ=0.000000D+00  E= 4.973523D-03
              MO Center= -4.6D-01,  4.0D-01, -1.8D-06, r^2= 2.6D+00
   Bfn.  Coefficient  Atom+Function         Bfn.  Coefficient  Atom+Function  
  ----- ------------  ---------------      ----- ------------  ---------------
     9      0.624724  1 C  pz                18     -0.616195  2 C  pz         
    15     -0.525135  2 C  pz                 6      0.471947  1 C  pz         
    37      0.247670  8 H  s                 39     -0.247692  9 H  s          

 Vector   14  Occ=0.000000D+00  E= 1.448036D-01
              MO Center=  5.4D-01, -3.0D-01, -7.8D-06, r^2= 5.7D+00
   Bfn.  Coefficient  Atom+Function         Bfn.  Coefficient  Atom+Function  
  ----- ------------  ---------------      ----- ------------  ---------------
    27      2.112882  6 C  s                 12     -1.820112  2 C  s          
    17      1.240443  2 C  py                31     -1.056846  6 C  px         
    32      0.951369  6 C  py                 3     -0.938597  1 C  s          
    16     -0.841161  2 C  px                37     -0.408509  8 H  s          
    39     -0.408505  9 H  s                 22      0.395161  4 H  s          

 Vector   15  Occ=0.000000D+00  E= 1.513779D-01
              MO Center=  3.8D-01, -7.8D-02, -2.1D-05, r^2= 5.7D+00
   Bfn.  Coefficient  Atom+Function         Bfn.  Coefficient  Atom+Function  
  ----- ------------  ---------------      ----- ------------  ---------------
    27      1.843061  6 C  s                 12      1.649847  2 C  s          
     3     -1.346674  1 C  s                  7     -1.275666  1 C  px         
    16     -1.272875  2 C  px                35     -1.030467  7 H  s          
    37     -0.667815  8 H  s                 39     -0.667757  9 H  s          
    20     -0.552383  3 H  s                 31      0.537204  6 C  px         

 Vector   16  Occ=0.000000D+00  E= 1.719798D-01
              MO Center= -7.9D-01, -3.7D-02, -3.5D-05, r^2= 5.7D+00
   Bfn.  Coefficient  Atom+Function         Bfn.  Coefficient  Atom+Function  
  ----- ------------  ---------------      ----- ------------  ---------------
     3      2.334521  1 C  s                 12     -1.786728  2 C  s          
    27      1.470625  6 C  s                 35     -1.090954  7 H  s          
    20     -0.970118  3 H  s                 22     -0.873099  4 H  s          
    16      0.522976  2 C  px                32      0.461238  6 C  py         
     7      0.433791  1 C  px                31      0.295031  6 C  px         

 Vector   17  Occ=0.000000D+00  E= 1.987044D-01
              MO Center=  4.7D-01, -6.3D-01,  9.6D-05, r^2= 4.8D+00
   Bfn.  Coefficient  Atom+Function         Bfn.  Coefficient  Atom+Function  
  ----- ------------  ---------------      ----- ------------  ---------------
    32      1.806861  6 C  py                37      1.398485  8 H  s          
    39      1.397276  9 H  s                 17      1.143556  2 C  py         
    24     -1.050757  5 H  s                 16     -0.851616  2 C  px         
     3     -0.699356  1 C  s                  7     -0.528612  1 C  px         
     8     -0.518487  1 C  py                35     -0.471446  7 H  s          

 Vector   18  Occ=0.000000D+00  E= 2.410660D-01
              MO Center=  1.1D+00, -7.9D-01, -7.2D-04, r^2= 3.5D+00
   Bfn.  Coefficient  Atom+Function         Bfn.  Coefficient  Atom+Function  
  ----- ------------  ---------------      ----- ------------  ---------------
    33      2.420567  6 C  pz                37     -1.899797  8 H  s          
    39      1.898849  9 H  s                 18     -0.839094  2 C  pz         
    30      0.376670  6 C  pz                 9      0.222184  1 C  pz         
    15     -0.193865  2 C  pz         

 Vector   19  Occ=0.000000D+00  E= 2.431283D-01
              MO Center= -9.7D-01,  8.5D-02,  4.1D-04, r^2= 5.7D+00
   Bfn.  Coefficient  Atom+Function         Bfn.  Coefficient  Atom+Function  
  ----- ------------  ---------------      ----- ------------  ---------------
     7      1.860054  1 C  px                16      1.570619  2 C  px         
    22      1.547992  4 H  s                 24     -1.334212  5 H  s          
    32     -1.145424  6 C  py                 8      0.560330  1 C  py         
    39     -0.523752  9 H  s                 37     -0.519960  8 H  s          
    17      0.505497  2 C  py                 3      0.471112  1 C  s          

 Vector   20  Occ=0.000000D+00  E= 2.588098D-01
              MO Center= -3.0D-01,  2.0D-01,  2.4D-04, r^2= 5.7D+00
   Bfn.  Coefficient  Atom+Function         Bfn.  Coefficient  Atom+Function  
  ----- ------------  ---------------      ----- ------------  ---------------
    31      1.823357  6 C  px                35     -1.762679  7 H  s          
     3     -1.284713  1 C  s                 24      1.216833  5 H  s          
    17     -1.189226  2 C  py                20      1.029149  3 H  s          
    16     -0.914484  2 C  px                 7      0.792130  1 C  px         
    22      0.679376  4 H  s                 32      0.658139  6 C  py         

 Vector   21  Occ=0.000000D+00  E= 3.068353D-01
              MO Center=  6.7D-01, -6.6D-01,  3.2D-05, r^2= 3.7D+00
   Bfn.  Coefficient  Atom+Function         Bfn.  Coefficient  Atom+Function  
  ----- ------------  ---------------      ----- ------------  ---------------
    33      1.113779  6 C  pz                30     -0.819223  6 C  pz         
     6     -0.341231  1 C  pz                 9      0.336033  1 C  pz         
    15     -0.243769  2 C  pz         

 Vector   22  Occ=0.000000D+00  E= 3.135926D-01
              MO Center=  5.8D-01, -1.5D-01, -8.5D-06, r^2= 5.4D+00
   Bfn.  Coefficient  Atom+Function         Bfn.  Coefficient  Atom+Function  
  ----- ------------  ---------------      ----- ------------  ---------------
     8      1.990545  1 C  py                17     -1.641009  2 C  py         
    16     -1.548652  2 C  px                22      1.212198  4 H  s          
    20     -1.051986  3 H  s                 31      0.977989  6 C  px         
     3     -0.946255  1 C  s                 24      0.923600  5 H  s          
    27     -0.736444  6 C  s                 28     -0.670127  6 C  px         

 Vector   23  Occ=0.000000D+00  E= 3.288633D-01
              MO Center= -1.2D-01,  1.3D-01, -7.9D-07, r^2= 5.0D+00
   Bfn.  Coefficient  Atom+Function         Bfn.  Coefficient  Atom+Function  
  ----- ------------  ---------------      ----- ------------  ---------------
    20      0.895419  3 H  s                 31     -0.823640  6 C  px         
    22     -0.697765  4 H  s                 24     -0.600661  5 H  s          
    35      0.539662  7 H  s                 14      0.497259  2 C  py         
     7      0.469081  1 C  px                 5     -0.427284  1 C  py         
    29     -0.365691  6 C  py                 8     -0.363052  1 C  py         

 Vector   24  Occ=0.000000D+00  E= 3.459834D-01
              MO Center=  3.1D-01, -1.2D-01,  1.4D-07, r^2= 4.5D+00
   Bfn.  Coefficient  Atom+Function         Bfn.  Coefficient  Atom+Function  
  ----- ------------  ---------------      ----- ------------  ---------------
    16      1.339480  2 C  px                20      0.996206  3 H  s          
    24     -0.861707  5 H  s                  8     -0.724189  1 C  py         
    31      0.674512  6 C  px                 7      0.638219  1 C  px         
    29     -0.610171  6 C  py                35     -0.578881  7 H  s          
    22      0.560615  4 H  s                 27      0.328537  6 C  s          

 Vector   25  Occ=0.000000D+00  E= 3.738286D-01
              MO Center= -4.2D-01,  2.7D-01,  1.1D-05, r^2= 4.5D+00
   Bfn.  Coefficient  Atom+Function         Bfn.  Coefficient  Atom+Function  
  ----- ------------  ---------------      ----- ------------  ---------------
    33      0.794479  6 C  pz                 9     -0.738717  1 C  pz         
     6      0.710433  1 C  pz                18     -0.663157  2 C  pz         
    30     -0.452458  6 C  pz                15      0.437524  2 C  pz         

 Vector   26  Occ=0.000000D+00  E= 3.881936D-01
              MO Center= -3.0D-01,  5.6D-02, -5.2D-06, r^2= 5.1D+00
   Bfn.  Coefficient  Atom+Function         Bfn.  Coefficient  Atom+Function  
  ----- ------------  ---------------      ----- ------------  ---------------
    16      2.410249  2 C  px                 8      2.149650  1 C  py         
    31     -1.984448  6 C  px                24     -1.716487  5 H  s          
     3      1.600843  1 C  s                 35      1.408774  7 H  s          
    20     -1.243733  3 H  s                 32     -0.838336  6 C  py         
    17      0.789035  2 C  py                27     -0.783117  6 C  s          

 Vector   27  Occ=0.000000D+00  E= 4.360794D-01
              MO Center= -3.1D-01,  6.2D-01,  2.4D-04, r^2= 3.9D+00
   Bfn.  Coefficient  Atom+Function         Bfn.  Coefficient  Atom+Function  
  ----- ------------  ---------------      ----- ------------  ---------------
    18      1.779165  2 C  pz                 9     -1.235036  1 C  pz         
    15     -0.824532  2 C  pz                33     -0.806308  6 C  pz         
     6      0.578424  1 C  pz                37      0.240694  8 H  s          
    39     -0.240788  9 H  s          

 Vector   28  Occ=0.000000D+00  E= 4.367073D-01
              MO Center=  7.6D-02,  4.4D-01, -2.1D-04, r^2= 3.2D+00
   Bfn.  Coefficient  Atom+Function         Bfn.  Coefficient  Atom+Function  
  ----- ------------  ---------------      ----- ------------  ---------------
    17      3.692349  2 C  py                 8     -2.941015  1 C  py         
    24     -1.898659  5 H  s                 22     -1.515771  4 H  s          
    27      1.214956  6 C  s                 12      1.189907  2 C  s          
    20      1.157496  3 H  s                 32      0.891820  6 C  py         
    16     -0.828322  2 C  px                14     -0.670596  2 C  py         

 Vector   29  Occ=0.000000D+00  E= 5.751622D-01
              MO Center= -3.4D-01,  5.1D-01, -1.6D-05, r^2= 3.2D+00
   Bfn.  Coefficient  Atom+Function         Bfn.  Coefficient  Atom+Function  
  ----- ------------  ---------------      ----- ------------  ---------------
     8      4.001490  1 C  py                17     -3.554235  2 C  py         
    20     -2.507094  3 H  s                 24      2.166859  5 H  s          
    22      2.085955  4 H  s                 27     -1.785254  6 C  s          
    12     -1.223236  2 C  s                  3      0.967710  1 C  s          
    13      0.760966  2 C  px                 4      0.640149  1 C  px         


 center of mass
 --------------
 x =  -0.02565798 y =   0.04445332 z =  -0.00001003

 moments of inertia (a.u.)
 ------------------
          86.679195207669          69.316251789802          -0.001389696743
          69.316251789802         151.268974573116           0.000251758181
          -0.001389696743           0.000251758181         226.546354084052

     Multipole analysis of the density
     ---------------------------------

     L   x y z        total         alpha         beta         nuclear
     -   - - -        -----         -----         ----         -------
     0   0 0 0     -0.000000    -12.000000    -12.000000     24.000000

     1   1 0 0      0.147521      0.073761      0.073761     -0.000000
     1   0 1 0     -0.092045     -0.046022     -0.046022      0.000000
     1   0 0 1      0.000073      0.000037      0.000037      0.000000

     2   2 0 0    -13.859838    -53.701235    -53.701235     93.542632
     2   1 1 0      0.332483     20.938864     20.938864    -41.545244
     2   1 0 1      0.000232     -0.000566     -0.000566      0.001364
     2   0 2 0    -13.731104    -34.729584    -34.729584     55.728065
     2   0 1 1      0.000096      0.000160      0.000160     -0.000225
     2   0 0 2    -16.347704    -11.002174    -11.002174      5.656645


 HESSIAN: the one electron contributions are done in       0.3s


 HESSIAN: 2-el 1st deriv. term done in                     0.1s


 HESSIAN: 2-el 2nd deriv. term done in                     0.3s

  stpr_wrt_fd_from_sq: overwrite of existing file:./propene.hess
 stpr_wrt_fd_dipole: overwrite of existing file./propene.fd_ddipole

 HESSIAN: the two electron contributions are done in      22.0s

                                NWChem CPHF Module
                                ------------------


  scftype          =     RHF 
  nclosed          =       12
  nopen            =        0
  variables        =      324
  # of vectors     =       27
  tolerance        = 0.10D-03
  level shift      = 0.00D+00
  max iterations   =       50
  max subspace     =      270

 SCF residual:    2.4750176909801278E-008


Iterative solution of linear equations
  No. of variables      324
  No. of equations       27
  Maximum subspace      270
        Iterations       50
       Convergence  1.0D-04
        Start time     53.6


   iter   nsub   residual    time
   ----  ------  --------  ---------
     1     27    1.71D-01      61.0
     2     54    5.16D-02      68.1
     3     81    7.35D-04      75.3
     4    108    3.10D-05      82.7
 HESSIAN: the CPHF contributions are done
  stpr_wrt_fd_from_sq: overwrite of existing file:./propene.hess
 stpr_wrt_fd_dipole: overwrite of existing file./propene.fd_ddipole
 HESSIAN: the Hessian is done
 Read old hessian file : ./propene.hess                                                                                                                                                                                                                                                 
 vdW contribution to hessian 

              1        2        3        4        5        6        7        8
    1    0.6949  -0.0048   0.0000  -0.4089  -0.0058   0.0000  -0.1295   0.1379
    2   -0.0048   0.7178   0.0000  -0.0085  -0.1236  -0.0000   0.1332  -0.2957
    3    0.0000   0.0000   0.1196   0.0000  -0.0000  -0.0706  -0.0000  -0.0000
    4   -0.4089  -0.0085   0.0000   0.6955   0.0677   0.0000  -0.0103  -0.0074
    5   -0.0058  -0.1236  -0.0000   0.0677   0.6367  -0.0000   0.0308   0.0026
    6    0.0000  -0.0000  -0.0706   0.0000  -0.0000   0.1603   0.0000   0.0000
    7   -0.1295   0.1332  -0.0000  -0.0103   0.0308   0.0000   0.1360  -0.1460
    8    0.1379  -0.2957  -0.0000  -0.0074   0.0026   0.0000  -0.1460   0.3021
    9   -0.0000  -0.0000  -0.0313   0.0000   0.0000   0.0049  -0.0000   0.0000
   10   -0.1293  -0.1328  -0.0000  -0.0118  -0.0306  -0.0000   0.0082   0.0155
   11   -0.1380  -0.2947  -0.0000   0.0067   0.0023  -0.0000  -0.0159  -0.0123
   12    0.0000  -0.0000  -0.0328  -0.0000  -0.0000   0.0055  -0.0000  -0.0000
   13   -0.0110  -0.0294   0.0000  -0.1311  -0.1372   0.0000   0.0008   0.0007
   14    0.0075   0.0031   0.0000  -0.1410  -0.2915  -0.0000  -0.0006   0.0013
   15    0.0000  -0.0000   0.0061   0.0000   0.0000  -0.0352   0.0000   0.0000
   16   -0.0155   0.0343  -0.0000  -0.1216   0.0587  -0.0000  -0.0047  -0.0001
   17    0.0045  -0.0033   0.0000   0.0567  -0.1880  -0.0000  -0.0025   0.0014
   18   -0.0000   0.0000   0.0054  -0.0000  -0.0000  -0.0682   0.0000  -0.0000
   19   -0.0004   0.0039   0.0000  -0.0159  -0.0075   0.0000  -0.0009   0.0002
   20    0.0015  -0.0057   0.0000   0.0348   0.0032  -0.0000   0.0015  -0.0000
   21   -0.0000   0.0000   0.0005  -0.0000  -0.0000  -0.0010  -0.0000   0.0000
   22   -0.0002   0.0020   0.0004   0.0020   0.0120  -0.0141   0.0002  -0.0004
   23   -0.0014   0.0010  -0.0011  -0.0045  -0.0208   0.0222  -0.0002   0.0003
   24    0.0003  -0.0002   0.0016   0.0013  -0.0034   0.0022  -0.0002  -0.0002
   25   -0.0002   0.0020  -0.0004   0.0020   0.0120   0.0141   0.0002  -0.0004
   26   -0.0014   0.0010   0.0011  -0.0045  -0.0208  -0.0222  -0.0002   0.0003
   27   -0.0003   0.0002   0.0016  -0.0012   0.0034   0.0022   0.0002   0.0002

              9       10       11       12       13       14       15       16
    1   -0.0000  -0.1293  -0.1380   0.0000  -0.0110   0.0075   0.0000  -0.0155
    2   -0.0000  -0.1328  -0.2947  -0.0000  -0.0294   0.0031  -0.0000   0.0343
    3   -0.0313  -0.0000  -0.0000  -0.0328   0.0000   0.0000   0.0061  -0.0000
    4    0.0000  -0.0118   0.0067  -0.0000  -0.1311  -0.1410   0.0000  -0.1216
    5    0.0000  -0.0306   0.0023  -0.0000  -0.1372  -0.2915   0.0000   0.0587
    6    0.0049  -0.0000  -0.0000   0.0055   0.0000  -0.0000  -0.0352  -0.0000
    7   -0.0000   0.0082  -0.0159  -0.0000   0.0008  -0.0006   0.0000  -0.0047
    8    0.0000   0.0155  -0.0123  -0.0000   0.0007   0.0013   0.0000  -0.0001
    9    0.0206   0.0000  -0.0000   0.0025  -0.0000   0.0000  -0.0073  -0.0000
   10    0.0000   0.1360   0.1460   0.0000  -0.0045   0.0011  -0.0000   0.0018
   11   -0.0000   0.1460   0.3017   0.0000   0.0013   0.0009  -0.0000   0.0004
   12    0.0025   0.0000   0.0000   0.0203   0.0000  -0.0000   0.0117   0.0000
   13   -0.0000  -0.0045   0.0013   0.0000   0.1388   0.1438  -0.0000   0.0068
   14    0.0000   0.0011   0.0009  -0.0000   0.1438   0.3014   0.0000  -0.0128
   15   -0.0073  -0.0000  -0.0000   0.0117  -0.0000   0.0000   0.0209  -0.0000
   16   -0.0000   0.0018   0.0004   0.0000   0.0068  -0.0128  -0.0000   0.5840
   17   -0.0000  -0.0003   0.0010   0.0000   0.0170  -0.0120  -0.0000   0.0548
   18    0.0094  -0.0000   0.0000  -0.0059   0.0000  -0.0000   0.0052   0.0000
   19   -0.0000   0.0006   0.0001   0.0000   0.0015   0.0003  -0.0000  -0.3236
   20    0.0000   0.0001   0.0001  -0.0000  -0.0005   0.0012   0.0000  -0.0567
   21    0.0006   0.0000   0.0000  -0.0003   0.0000  -0.0000   0.0004   0.0000
   22    0.0005  -0.0005  -0.0003  -0.0001  -0.0006   0.0009  -0.0002  -0.0636
   23   -0.0016   0.0005   0.0004   0.0015   0.0021  -0.0022   0.0003  -0.0393
   24    0.0003  -0.0005   0.0001  -0.0005  -0.0001  -0.0006  -0.0009   0.0582
   25   -0.0005  -0.0005  -0.0003   0.0001  -0.0006   0.0009   0.0002  -0.0637
   26    0.0016   0.0005   0.0004  -0.0015   0.0021  -0.0022  -0.0003  -0.0393
   27    0.0003   0.0005  -0.0001  -0.0005   0.0001   0.0006  -0.0009  -0.0582

             17       18       19       20       21       22       23       24
    1    0.0045  -0.0000  -0.0004   0.0015  -0.0000  -0.0002  -0.0014   0.0003
    2   -0.0033   0.0000   0.0039  -0.0057   0.0000   0.0020   0.0010  -0.0002
    3    0.0000   0.0054   0.0000   0.0000   0.0005   0.0004  -0.0011   0.0016
    4    0.0567  -0.0000  -0.0159   0.0348  -0.0000   0.0020  -0.0045   0.0013
    5   -0.1880  -0.0000  -0.0075   0.0032  -0.0000   0.0120  -0.0208  -0.0034
    6   -0.0000  -0.0682   0.0000  -0.0000  -0.0010  -0.0141   0.0222   0.0022
    7   -0.0025   0.0000  -0.0009   0.0015  -0.0000   0.0002  -0.0002  -0.0002
    8    0.0014  -0.0000   0.0002  -0.0000   0.0000  -0.0004   0.0003  -0.0002
    9   -0.0000   0.0094  -0.0000   0.0000   0.0006   0.0005  -0.0016   0.0003
   10   -0.0003  -0.0000   0.0006   0.0001   0.0000  -0.0005   0.0005  -0.0005
   11    0.0010   0.0000   0.0001   0.0001   0.0000  -0.0003   0.0004   0.0001
   12    0.0000  -0.0059   0.0000  -0.0000  -0.0003  -0.0001   0.0015  -0.0005
   13    0.0170   0.0000   0.0015  -0.0005   0.0000  -0.0006   0.0021  -0.0001
   14   -0.0120  -0.0000   0.0003   0.0012  -0.0000   0.0009  -0.0022  -0.0006
   15   -0.0000   0.0052  -0.0000   0.0000   0.0004  -0.0002   0.0003  -0.0009
   16    0.0548   0.0000  -0.3236  -0.0567   0.0000  -0.0636  -0.0393   0.0582
   17    0.4942   0.0000  -0.0522  -0.0567  -0.0000  -0.0390  -0.1183   0.1233
   18    0.0000   0.5811   0.0000  -0.0000  -0.0490   0.0576   0.1242  -0.2390
   19   -0.0522   0.0000   0.3515   0.0546  -0.0000  -0.0064   0.0004  -0.0030
   20   -0.0567  -0.0000   0.0546   0.0636  -0.0000  -0.0176  -0.0028  -0.0016
   21   -0.0000  -0.0490  -0.0000  -0.0000   0.0472   0.0286   0.0044   0.0008
   22   -0.0390   0.0576  -0.0064  -0.0176   0.0286   0.0669   0.0380  -0.0644
   23   -0.1183   0.1242   0.0004  -0.0028   0.0044   0.0380   0.1336  -0.1336
   24    0.1233  -0.2390  -0.0030  -0.0016   0.0008  -0.0644  -0.1336   0.2560
   25   -0.0390  -0.0577  -0.0064  -0.0176  -0.0285   0.0022   0.0045   0.0084
   26   -0.1184  -0.1242   0.0004  -0.0029  -0.0044   0.0044   0.0089   0.0162
   27   -0.1233  -0.2389   0.0030   0.0016   0.0008  -0.0084  -0.0163  -0.0204

             25       26       27      
    1   -0.0002  -0.0014  -0.0003
    2    0.0020   0.0010   0.0002
    3   -0.0004   0.0011   0.0016
    4    0.0020  -0.0045  -0.0012
    5    0.0120  -0.0208   0.0034
    6    0.0141  -0.0222   0.0022
    7    0.0002  -0.0002   0.0002
    8   -0.0004   0.0003   0.0002
    9   -0.0005   0.0016   0.0003
   10   -0.0005   0.0005   0.0005
   11   -0.0003   0.0004  -0.0001
   12    0.0001  -0.0015  -0.0005
   13   -0.0006   0.0021   0.0001
   14    0.0009  -0.0022   0.0006
   15    0.0002  -0.0003  -0.0009
   16   -0.0637  -0.0393  -0.0582
   17   -0.0390  -0.1184  -0.1233
   18   -0.0577  -0.1242  -0.2389
   19   -0.0064   0.0004   0.0030
   20   -0.0176  -0.0029   0.0016
   21   -0.0285  -0.0044   0.0008
   22    0.0022   0.0044  -0.0084
   23    0.0045   0.0089  -0.0163
   24    0.0084   0.0162  -0.0204
   25    0.0669   0.0380   0.0644
   26    0.0380   0.1337   0.1336
   27    0.0644   0.1336   0.2559

              1        2        3        4        5        6        7        8
    1    0.0000  -0.0002   0.0000   0.0000  -0.0000   0.0000   0.0000  -0.0000
    2   -0.0002   0.0001  -0.0000  -0.0000  -0.0000  -0.0000  -0.0000   0.0000
    3    0.0000  -0.0000   0.0000   0.0000  -0.0000   0.0000  -0.0000   0.0000
    4    0.0000  -0.0000   0.0000  -0.0004   0.0001  -0.0000   0.0001  -0.0000
    5   -0.0000  -0.0000  -0.0000   0.0001  -0.0004   0.0000  -0.0000   0.0000
    6    0.0000  -0.0000   0.0000  -0.0000   0.0000  -0.0001  -0.0000   0.0000
    7    0.0000  -0.0000  -0.0000   0.0001  -0.0000  -0.0000   0.0001   0.0001
    8   -0.0000   0.0000   0.0000  -0.0000   0.0000   0.0000   0.0001  -0.0002
    9   -0.0000   0.0000   0.0000   0.0000  -0.0000   0.0000  -0.0000   0.0000
   10    0.0000   0.0000  -0.0000   0.0001   0.0000  -0.0000   0.0000   0.0000
   11    0.0000   0.0000  -0.0000   0.0000   0.0000  -0.0000  -0.0000   0.0001
   12   -0.0000  -0.0000   0.0000   0.0000  -0.0000   0.0000   0.0000  -0.0000
   13    0.0001   0.0000   0.0000   0.0000   0.0000  -0.0000  -0.0002  -0.0000
   14    0.0000   0.0000   0.0000   0.0000   0.0000  -0.0000   0.0000  -0.0000
   15    0.0000   0.0000   0.0000   0.0000   0.0000   0.0000   0.0000  -0.0000
   16    0.0001  -0.0000   0.0000   0.0000  -0.0000  -0.0000   0.0000  -0.0000
   17   -0.0000   0.0000   0.0000  -0.0000   0.0000  -0.0000  -0.0000  -0.0000
   18   -0.0000   0.0000   0.0000  -0.0000  -0.0000   0.0000   0.0000  -0.0000
   19    0.0000  -0.0000  -0.0000   0.0001  -0.0000   0.0000   0.0000  -0.0000
   20   -0.0000  -0.0000  -0.0000  -0.0000   0.0000  -0.0000  -0.0000   0.0000
   21    0.0000  -0.0000  -0.0000  -0.0000   0.0000   0.0000   0.0000  -0.0000
   22   -0.0001   0.0001  -0.0001   0.0000  -0.0000   0.0000   0.0000  -0.0000
   23    0.0001  -0.0001   0.0001  -0.0000   0.0001  -0.0000  -0.0000   0.0000
   24   -0.0001   0.0001  -0.0000   0.0000  -0.0000   0.0000   0.0000  -0.0000
   25   -0.0001   0.0001   0.0001   0.0000  -0.0000  -0.0000   0.0000  -0.0000
   26    0.0001  -0.0001  -0.0001  -0.0000   0.0001   0.0000  -0.0000   0.0000
   27    0.0001  -0.0001  -0.0000  -0.0000   0.0000   0.0000  -0.0000   0.0000

              9       10       11       12       13       14       15       16
    1   -0.0000   0.0000   0.0000  -0.0000   0.0001   0.0000   0.0000   0.0001
    2    0.0000   0.0000   0.0000  -0.0000   0.0000   0.0000   0.0000  -0.0000
    3    0.0000  -0.0000  -0.0000   0.0000   0.0000   0.0000   0.0000   0.0000
    4    0.0000   0.0001   0.0000   0.0000   0.0000   0.0000   0.0000   0.0000
    5   -0.0000   0.0000   0.0000  -0.0000   0.0000   0.0000   0.0000  -0.0000
    6    0.0000  -0.0000  -0.0000   0.0000  -0.0000  -0.0000   0.0000  -0.0000
    7   -0.0000   0.0000  -0.0000   0.0000  -0.0002   0.0000   0.0000   0.0000
    8    0.0000   0.0000   0.0001  -0.0000  -0.0000  -0.0000  -0.0000  -0.0000
    9   -0.0000   0.0000   0.0000   0.0000  -0.0000  -0.0000  -0.0000   0.0000
   10    0.0000   0.0001  -0.0001  -0.0000  -0.0000   0.0000   0.0000  -0.0003
   11    0.0000  -0.0001  -0.0001   0.0000   0.0000  -0.0000   0.0000   0.0000
   12    0.0000  -0.0000   0.0000  -0.0000   0.0000  -0.0000  -0.0000   0.0000
   13   -0.0000  -0.0000   0.0000   0.0000   0.0002  -0.0002  -0.0000   0.0000
   14   -0.0000   0.0000  -0.0000  -0.0000  -0.0002  -0.0000   0.0000  -0.0000
   15   -0.0000   0.0000   0.0000  -0.0000  -0.0000   0.0000  -0.0000  -0.0000
   16    0.0000  -0.0003   0.0000   0.0000   0.0000  -0.0000  -0.0000   0.0002
   17    0.0000   0.0000  -0.0000   0.0000  -0.0000   0.0001   0.0000  -0.0000
   18   -0.0000  -0.0000   0.0000   0.0000   0.0000  -0.0000   0.0000  -0.0000
   19   -0.0000   0.0000  -0.0000  -0.0000  -0.0001   0.0001  -0.0000   0.0000
   20   -0.0000  -0.0000  -0.0000  -0.0000   0.0001  -0.0002  -0.0000   0.0000
   21   -0.0000   0.0000  -0.0000  -0.0000  -0.0000  -0.0000   0.0000  -0.0000
   22    0.0000   0.0000  -0.0000   0.0000  -0.0000   0.0000  -0.0000   0.0000
   23   -0.0000  -0.0000  -0.0000  -0.0000   0.0000   0.0000  -0.0000   0.0000
   24   -0.0000   0.0000  -0.0000  -0.0000  -0.0000  -0.0000  -0.0000  -0.0000
   25   -0.0000   0.0000  -0.0000  -0.0000  -0.0000   0.0000   0.0000   0.0000
   26    0.0000  -0.0000  -0.0000   0.0000   0.0000   0.0000   0.0000   0.0000
   27   -0.0000  -0.0000   0.0000  -0.0000   0.0000   0.0000  -0.0000   0.0000

             17       18       19       20       21       22       23       24
    1   -0.0000  -0.0000   0.0000  -0.0000   0.0000  -0.0001   0.0001  -0.0001
    2    0.0000   0.0000  -0.0000  -0.0000  -0.0000   0.0001  -0.0001   0.0001
    3    0.0000   0.0000  -0.0000  -0.0000  -0.0000  -0.0001   0.0001  -0.0000
    4   -0.0000  -0.0000   0.0001  -0.0000  -0.0000   0.0000  -0.0000   0.0000
    5    0.0000  -0.0000  -0.0000   0.0000   0.0000  -0.0000   0.0001  -0.0000
    6   -0.0000   0.0000   0.0000  -0.0000   0.0000   0.0000  -0.0000   0.0000
    7   -0.0000   0.0000   0.0000  -0.0000   0.0000   0.0000  -0.0000   0.0000
    8   -0.0000  -0.0000  -0.0000   0.0000  -0.0000  -0.0000   0.0000  -0.0000
    9    0.0000  -0.0000  -0.0000  -0.0000  -0.0000   0.0000  -0.0000  -0.0000
   10    0.0000  -0.0000   0.0000  -0.0000   0.0000   0.0000  -0.0000   0.0000
   11   -0.0000   0.0000  -0.0000  -0.0000  -0.0000  -0.0000  -0.0000  -0.0000
   12    0.0000   0.0000  -0.0000  -0.0000  -0.0000   0.0000  -0.0000  -0.0000
   13   -0.0000   0.0000  -0.0001   0.0001  -0.0000  -0.0000   0.0000  -0.0000
   14    0.0001  -0.0000   0.0001  -0.0002  -0.0000   0.0000   0.0000  -0.0000
   15    0.0000   0.0000  -0.0000  -0.0000   0.0000  -0.0000  -0.0000  -0.0000
   16   -0.0000  -0.0000   0.0000   0.0000  -0.0000   0.0000   0.0000  -0.0000
   17   -0.0002  -0.0000   0.0000   0.0000  -0.0000   0.0000   0.0000  -0.0000
   18   -0.0000  -0.0001  -0.0000  -0.0000   0.0000  -0.0000  -0.0000   0.0000
   19    0.0000  -0.0000  -0.0002  -0.0001  -0.0000   0.0000   0.0000  -0.0000
   20    0.0000  -0.0000  -0.0001   0.0001  -0.0000   0.0000   0.0000  -0.0000
   21   -0.0000   0.0000  -0.0000  -0.0000  -0.0001  -0.0000  -0.0000   0.0000
   22    0.0000  -0.0000   0.0000   0.0000  -0.0000   0.0000  -0.0001   0.0001
   23    0.0000  -0.0000   0.0000   0.0000  -0.0000  -0.0001  -0.0001   0.0000
   24   -0.0000   0.0000  -0.0000  -0.0000   0.0000   0.0001   0.0000  -0.0001
   25    0.0000   0.0000   0.0000   0.0000   0.0000   0.0000  -0.0000   0.0000
   26    0.0000   0.0000   0.0000   0.0000   0.0000  -0.0000   0.0000   0.0000
   27    0.0000   0.0000   0.0000   0.0000   0.0000  -0.0000  -0.0000   0.0001

             25       26       27      
    1   -0.0001   0.0001   0.0001
    2    0.0001  -0.0001  -0.0001
    3    0.0001  -0.0001  -0.0000
    4    0.0000  -0.0000  -0.0000
    5   -0.0000   0.0001   0.0000
    6   -0.0000   0.0000   0.0000
    7    0.0000  -0.0000  -0.0000
    8   -0.0000   0.0000   0.0000
    9   -0.0000   0.0000  -0.0000
   10    0.0000  -0.0000  -0.0000
   11   -0.0000  -0.0000   0.0000
   12   -0.0000   0.0000  -0.0000
   13   -0.0000   0.0000   0.0000
   14    0.0000   0.0000   0.0000
   15    0.0000   0.0000  -0.0000
   16    0.0000   0.0000   0.0000
   17    0.0000   0.0000   0.0000
   18    0.0000   0.0000   0.0000
   19    0.0000   0.0000   0.0000
   20    0.0000   0.0000   0.0000
   21    0.0000   0.0000   0.0000
   22    0.0000  -0.0000  -0.0000
   23   -0.0000   0.0000  -0.0000
   24    0.0000   0.0000   0.0001
   25    0.0000  -0.0001  -0.0001
   26   -0.0001  -0.0001  -0.0000
   27   -0.0001  -0.0000  -0.0001

              1        2        3        4        5        6        7        8
    1    0.6950  -0.0051   0.0000  -0.4089  -0.0058   0.0000  -0.1295   0.1379
    2   -0.0051   0.7179   0.0000  -0.0085  -0.1236  -0.0000   0.1332  -0.2956
    3    0.0000   0.0000   0.1196   0.0000  -0.0000  -0.0706  -0.0000  -0.0000
    4   -0.4089  -0.0085   0.0000   0.6951   0.0678   0.0000  -0.0102  -0.0075
    5   -0.0058  -0.1236  -0.0000   0.0678   0.6363  -0.0000   0.0308   0.0027
    6    0.0000  -0.0000  -0.0706   0.0000  -0.0000   0.1601   0.0000   0.0000
    7   -0.1295   0.1332  -0.0000  -0.0102   0.0308   0.0000   0.1360  -0.1460
    8    0.1379  -0.2956  -0.0000  -0.0075   0.0027   0.0000  -0.1460   0.3019
    9   -0.0000  -0.0000  -0.0313   0.0000   0.0000   0.0049  -0.0000   0.0000
   10   -0.1293  -0.1327  -0.0000  -0.0117  -0.0305  -0.0000   0.0082   0.0155
   11   -0.1380  -0.2946  -0.0000   0.0068   0.0024  -0.0000  -0.0159  -0.0122
   12    0.0000  -0.0000  -0.0328  -0.0000  -0.0000   0.0055  -0.0000  -0.0000
   13   -0.0109  -0.0294   0.0000  -0.1311  -0.1372   0.0000   0.0006   0.0007
   14    0.0075   0.0032   0.0000  -0.1410  -0.2915  -0.0000  -0.0006   0.0013
   15    0.0000  -0.0000   0.0061   0.0000   0.0000  -0.0352   0.0000   0.0000
   16   -0.0154   0.0343  -0.0000  -0.1216   0.0587  -0.0000  -0.0047  -0.0001
   17    0.0045  -0.0033   0.0000   0.0567  -0.1880  -0.0000  -0.0025   0.0014
   18   -0.0000   0.0000   0.0054  -0.0000  -0.0000  -0.0682   0.0000  -0.0000
   19   -0.0004   0.0039   0.0000  -0.0158  -0.0076   0.0000  -0.0009   0.0002
   20    0.0015  -0.0057   0.0000   0.0347   0.0033  -0.0000   0.0015  -0.0000
   21   -0.0000   0.0000   0.0005  -0.0000  -0.0000  -0.0009  -0.0000   0.0000
   22   -0.0003   0.0022   0.0004   0.0021   0.0119  -0.0140   0.0002  -0.0004
   23   -0.0013   0.0009  -0.0011  -0.0045  -0.0207   0.0222  -0.0002   0.0003
   24    0.0002  -0.0002   0.0016   0.0013  -0.0034   0.0022  -0.0002  -0.0002
   25   -0.0003   0.0022  -0.0004   0.0021   0.0119   0.0140   0.0002  -0.0004
   26   -0.0013   0.0009   0.0011  -0.0045  -0.0207  -0.0221  -0.0002   0.0003
   27   -0.0002   0.0002   0.0016  -0.0013   0.0035   0.0022   0.0002   0.0002

              9       10       11       12       13       14       15       16
    1   -0.0000  -0.1293  -0.1380   0.0000  -0.0109   0.0075   0.0000  -0.0154
    2   -0.0000  -0.1327  -0.2946  -0.0000  -0.0294   0.0032  -0.0000   0.0343
    3   -0.0313  -0.0000  -0.0000  -0.0328   0.0000   0.0000   0.0061  -0.0000
    4    0.0000  -0.0117   0.0068  -0.0000  -0.1311  -0.1410   0.0000  -0.1216
    5    0.0000  -0.0305   0.0024  -0.0000  -0.1372  -0.2915   0.0000   0.0587
    6    0.0049  -0.0000  -0.0000   0.0055   0.0000  -0.0000  -0.0352  -0.0000
    7   -0.0000   0.0082  -0.0159  -0.0000   0.0006  -0.0006   0.0000  -0.0047
    8    0.0000   0.0155  -0.0122  -0.0000   0.0007   0.0013   0.0000  -0.0001
    9    0.0206   0.0000  -0.0000   0.0025  -0.0000   0.0000  -0.0073  -0.0000
   10    0.0000   0.1360   0.1459   0.0000  -0.0045   0.0011  -0.0000   0.0015
   11   -0.0000   0.1459   0.3016   0.0000   0.0013   0.0009  -0.0000   0.0004
   12    0.0025   0.0000   0.0000   0.0203   0.0000  -0.0000   0.0117   0.0000
   13   -0.0000  -0.0045   0.0013   0.0000   0.1390   0.1437  -0.0000   0.0068
   14    0.0000   0.0011   0.0009  -0.0000   0.1437   0.3013   0.0000  -0.0129
   15   -0.0073  -0.0000  -0.0000   0.0117  -0.0000   0.0000   0.0209  -0.0000
   16   -0.0000   0.0015   0.0004   0.0000   0.0068  -0.0129  -0.0000   0.5842
   17   -0.0000  -0.0002   0.0010   0.0000   0.0170  -0.0119  -0.0000   0.0548
   18    0.0094  -0.0000   0.0000  -0.0059   0.0000  -0.0000   0.0052   0.0000
   19   -0.0000   0.0006   0.0001   0.0000   0.0014   0.0004  -0.0000  -0.3236
   20    0.0000   0.0001   0.0001  -0.0000  -0.0004   0.0010   0.0000  -0.0566
   21    0.0006   0.0000   0.0000  -0.0003   0.0000  -0.0000   0.0004   0.0000
   22    0.0005  -0.0005  -0.0003  -0.0000  -0.0006   0.0009  -0.0002  -0.0636
   23   -0.0016   0.0004   0.0004   0.0015   0.0021  -0.0022   0.0003  -0.0393
   24    0.0003  -0.0004   0.0001  -0.0005  -0.0001  -0.0006  -0.0009   0.0582
   25   -0.0005  -0.0005  -0.0003   0.0000  -0.0006   0.0009   0.0002  -0.0637
   26    0.0016   0.0004   0.0004  -0.0015   0.0021  -0.0022  -0.0003  -0.0393
   27    0.0003   0.0004  -0.0001  -0.0005   0.0001   0.0006  -0.0009  -0.0582

             17       18       19       20       21       22       23       24
    1    0.0045  -0.0000  -0.0004   0.0015  -0.0000  -0.0003  -0.0013   0.0002
    2   -0.0033   0.0000   0.0039  -0.0057   0.0000   0.0022   0.0009  -0.0002
    3    0.0000   0.0054   0.0000   0.0000   0.0005   0.0004  -0.0011   0.0016
    4    0.0567  -0.0000  -0.0158   0.0347  -0.0000   0.0021  -0.0045   0.0013
    5   -0.1880  -0.0000  -0.0076   0.0033  -0.0000   0.0119  -0.0207  -0.0034
    6   -0.0000  -0.0682   0.0000  -0.0000  -0.0009  -0.0140   0.0222   0.0022
    7   -0.0025   0.0000  -0.0009   0.0015  -0.0000   0.0002  -0.0002  -0.0002
    8    0.0014  -0.0000   0.0002  -0.0000   0.0000  -0.0004   0.0003  -0.0002
    9   -0.0000   0.0094  -0.0000   0.0000   0.0006   0.0005  -0.0016   0.0003
   10   -0.0002  -0.0000   0.0006   0.0001   0.0000  -0.0005   0.0004  -0.0004
   11    0.0010   0.0000   0.0001   0.0001   0.0000  -0.0003   0.0004   0.0001
   12    0.0000  -0.0059   0.0000  -0.0000  -0.0003  -0.0000   0.0015  -0.0005
   13    0.0170   0.0000   0.0014  -0.0004   0.0000  -0.0006   0.0021  -0.0001
   14   -0.0119  -0.0000   0.0004   0.0010  -0.0000   0.0009  -0.0022  -0.0006
   15   -0.0000   0.0052  -0.0000   0.0000   0.0004  -0.0002   0.0003  -0.0009
   16    0.0548   0.0000  -0.3236  -0.0566   0.0000  -0.0636  -0.0393   0.0582
   17    0.4941   0.0000  -0.0522  -0.0567  -0.0000  -0.0390  -0.1183   0.1232
   18    0.0000   0.5810   0.0000  -0.0000  -0.0490   0.0576   0.1242  -0.2390
   19   -0.0522   0.0000   0.3514   0.0545  -0.0000  -0.0064   0.0004  -0.0030
   20   -0.0567  -0.0000   0.0545   0.0636  -0.0000  -0.0176  -0.0028  -0.0016
   21   -0.0000  -0.0490  -0.0000  -0.0000   0.0471   0.0285   0.0044   0.0008
   22   -0.0390   0.0576  -0.0064  -0.0176   0.0285   0.0669   0.0379  -0.0643
   23   -0.1183   0.1242   0.0004  -0.0028   0.0044   0.0379   0.1335  -0.1336
   24    0.1232  -0.2390  -0.0030  -0.0016   0.0008  -0.0643  -0.1336   0.2559
   25   -0.0390  -0.0577  -0.0064  -0.0176  -0.0285   0.0022   0.0045   0.0084
   26   -0.1184  -0.1242   0.0004  -0.0028  -0.0044   0.0044   0.0089   0.0162
   27   -0.1233  -0.2389   0.0030   0.0016   0.0008  -0.0084  -0.0163  -0.0203

             25       26       27      
    1   -0.0003  -0.0013  -0.0002
    2    0.0022   0.0009   0.0002
    3   -0.0004   0.0011   0.0016
    4    0.0021  -0.0045  -0.0013
    5    0.0119  -0.0207   0.0035
    6    0.0140  -0.0221   0.0022
    7    0.0002  -0.0002   0.0002
    8   -0.0004   0.0003   0.0002
    9   -0.0005   0.0016   0.0003
   10   -0.0005   0.0004   0.0004
   11   -0.0003   0.0004  -0.0001
   12    0.0000  -0.0015  -0.0005
   13   -0.0006   0.0021   0.0001
   14    0.0009  -0.0022   0.0006
   15    0.0002  -0.0003  -0.0009
   16   -0.0637  -0.0393  -0.0582
   17   -0.0390  -0.1184  -0.1233
   18   -0.0577  -0.1242  -0.2389
   19   -0.0064   0.0004   0.0030
   20   -0.0176  -0.0028   0.0016
   21   -0.0285  -0.0044   0.0008
   22    0.0022   0.0044  -0.0084
   23    0.0045   0.0089  -0.0163
   24    0.0084   0.0162  -0.0203
   25    0.0669   0.0379   0.0643
   26    0.0379   0.1336   0.1336
   27    0.0643   0.1336   0.2558
  stpr_wrt_fd_from_sq: overwrite of existing file:./propene.hess
 New hessian file vdw corrected has been                                written:./propene.hess                                                                                                                                                                                                                                                 


  Vibrational analysis via the FX method 

  See chapter 2 in "Molecular Vibrations" by Wilson, Decius and Cross

  Vib: Default input used 

  Nuclear Hessian passed symmetry test 



 ---------------------------- Atom information ----------------------------
     atom    #        X              Y              Z            mass
 --------------------------------------------------------------------------
    C        1 -2.3072924D+00  9.3626474D-01 -2.3621575D-05  1.2000000D+01
    C        2  3.4285929D-01  9.3626474D-01 -2.3621575D-05  1.2000000D+01
    H        3 -3.3277445D+00  2.7037255D+00 -2.3621575D-05  1.0078250D+00
    H        4 -3.3277445D+00 -8.3119598D-01 -2.3621575D-05  1.0078250D+00
    H        5  1.3633113D+00  2.7037255D+00 -2.3621575D-05  1.0078250D+00
    C        6  1.7832084D+00 -1.5585515D+00 -2.3621575D-05  1.2000000D+01
    H        7  3.8086167D+00 -1.1830630D+00 -2.3621575D-05  1.0078250D+00
    H        8  1.2856436D+00 -2.6381520D+00  1.6820215D+00  1.0078250D+00
    H        9  1.2852656D+00 -2.6389079D+00 -1.6815018D+00  1.0078250D+00
 --------------------------------------------------------------------------



        Vibrational analysis via the FX method 
  --- with translations and rotations projected out ---
  --- via the Eckart algorithm                      ---
 Projected Nuclear Hessian trans-rot subspace norm:1.7226D-33
                         (should be close to zero!) 


From the projected analysis 
The Zero-Point Energy (Kcal/mol) =          50.43615033

 center of mass
 --------------
 x =  -0.02565798 y =   0.04445332 z =  -0.00001003

 moments of inertia (a.u.)
 ------------------
          86.679195207669          69.316251789802          -0.001389696743
          69.316251789802         151.268974573116           0.000251758181
          -0.001389696743           0.000251758181         226.546354084052

 Rotational Constants
 --------------------
 A=   1.416348 cm-1  (  2.037763 K)
 B=   0.308017 cm-1  (  0.443158 K)
 C=   0.265730 cm-1  (  0.382318 K)


 Temperature                      =   298.15K
 frequency scaling parameter      =   1.0000

 Zero-Point correction to Energy  =   50.397 kcal/mol  (  0.080313 au)
 Thermal correction to Energy     =   52.619 kcal/mol  (  0.083853 au)
 Thermal correction to Enthalpy   =   53.211 kcal/mol  (  0.084797 au)

 Total Entropy                    =   61.256 cal/mol-K
   - Translational                =   37.119 cal/mol-K (mol. weight =  42.0469)
   - Rotational                   =   22.148 cal/mol-K (symmetry #  =        1)
   - Vibrational                  =    1.989 cal/mol-K

 Cv (constant volume heat capacity) =   11.230 cal/mol-K
   - Translational                  =    2.979 cal/mol-K
   - Rotational                     =    2.979 cal/mol-K
   - Vibrational                    =    5.271 cal/mol-K


!!!!!!!!!!!!!!!!!!!!!!!!!!!!!!!!!!!!!!!!!!!!!!!!!!!!!!!!!!!!!!!!!!!!!!!
!!                                                                   !!
!!  WARNING: doctored file with artificially crazy frequency values  !!
!!                                                                   !!
!!!!!!!!!!!!!!!!!!!!!!!!!!!!!!!!!!!!!!!!!!!!!!!!!!!!!!!!!!!!!!!!!!!!!!!

          -------------------------------------------------
          NORMAL MODE EIGENVECTORS IN CARTESIAN COORDINATES
          -------------------------------------------------
             (Projected Frequencies expressed in cm-1)

                    1           2           3           4           5           6
 
 P.Frequency      -93.28      -12.74    -0.005       0.005       12.58       45.96
 
           1    -0.00001     0.15938    -0.00148     0.00009     0.00093     0.03914
           2     0.00001     0.07605    -0.00287    -0.00087     0.00093     0.01703
           3    -0.04389     0.00049     0.04162    -0.21599     0.10117    -0.00270
           4    -0.00001     0.15938    -0.00148     0.00009     0.00093     0.03914
           5    -0.00002     0.03139    -0.00049    -0.00039    -0.00318    -0.11771
           6     0.04292    -0.00044    -0.03518    -0.14728    -0.14907     0.00401
           7     0.00002     0.18916    -0.00307    -0.00024     0.00367     0.12900
           8     0.00002     0.09325    -0.00379    -0.00106     0.00251     0.06891
           9     0.06818    -0.00101    -0.12646    -0.31122     0.08317    -0.00335
          10    -0.00003     0.12959     0.00010     0.00041    -0.00181    -0.05072
          11     0.00002     0.09325    -0.00379    -0.00106     0.00251     0.06891
          12    -0.31537     0.00269     0.26885    -0.17368     0.31187    -0.00722
          13     0.00001     0.18916    -0.00307    -0.00024     0.00367     0.12900
          14    -0.00003     0.01420     0.00042    -0.00020    -0.00476    -0.16959
          15     0.32121    -0.00265    -0.26241    -0.18959    -0.35977     0.00854
          16     0.00000     0.11734     0.00076     0.00055    -0.00293    -0.08770
          17     0.00000     0.00712     0.00080    -0.00012    -0.00541    -0.19094
          18    -0.00507     0.00168     0.20208    -0.01287    -0.12366     0.00492
          19    -0.00000     0.12367     0.00042     0.00048    -0.00235    -0.06861
          20    -0.00001    -0.02701     0.00262     0.00025    -0.00854    -0.29392
          21    -0.49073     0.00058     0.10139     0.02503    -0.33920     0.01047
          22     0.38449     0.09973     0.05047    -0.04287     0.15422    -0.14685
          23     0.20499     0.01727     0.18846     0.06523     0.10419    -0.16749
          24     0.24427     0.00298     0.33723     0.01623    -0.00683     0.00248
          25    -0.38434     0.09855    -0.04700     0.04434    -0.16337    -0.13837
          26    -0.20490     0.01375    -0.18769    -0.06563    -0.11342    -0.16378
          27     0.24442     0.00298     0.33733     0.01625    -0.00675     0.00248

                    7           8           9          10          11          12
 
 P.Frequency       20.88      428.89      591.34      913.74      946.12      973.91
 
           1     0.01890    -0.07369    -0.00000    -0.08433    -0.00001    -0.06361
           2    -0.20169     0.08915     0.00000     0.09102     0.00001    -0.02607
           3     0.00076     0.00000     0.02362     0.00001    -0.11271     0.00010
           4     0.01890    -0.06729    -0.00000    -0.01518    -0.00000     0.01426
           5    -0.09762    -0.11304    -0.00001     0.08552     0.00000     0.05557
           6     0.00063     0.00000    -0.12718     0.00001    -0.00650    -0.00006
           7    -0.05051     0.19252     0.00002    -0.48887    -0.00004     0.09617
           8    -0.24176     0.24920     0.00001    -0.14299    -0.00001     0.07357
           9     0.00287    -0.00004     0.66582    -0.00003     0.25236    -0.00076
          10     0.08830    -0.33888    -0.00003     0.28644     0.00002    -0.27838
          11    -0.24176     0.24801     0.00002    -0.13272    -0.00001     0.09654
          12    -0.00124     0.00003    -0.29002    -0.00005     0.76867     0.00011
          13    -0.05051    -0.06087     0.00000     0.14858     0.00003    -0.28634
          14    -0.05755    -0.11333    -0.00001     0.00021    -0.00001     0.23647
          15     0.00263    -0.00004     0.26278    -0.00002     0.42343     0.00069
          16     0.11686     0.11139     0.00001     0.07695     0.00000     0.11389
          17    -0.04106    -0.01474     0.00000    -0.12617    -0.00000    -0.03101
          18    -0.00234    -0.00000     0.01708    -0.00001     0.00181    -0.00007
          19     0.10212     0.07095     0.00002     0.06792     0.00001     0.20187
          20     0.03847     0.22218    -0.00004    -0.04676     0.00000    -0.55593
          21    -0.00201     0.00003     0.23337     0.00001    -0.03985     0.00020
          22     0.15934     0.24427    -0.18030     0.12720     0.03792    -0.25103
          23    -0.06256    -0.07309     0.17492    -0.13866    -0.03256     0.08394
          24    -0.00357     0.00201     0.07883     0.00999    -0.00332    -0.02958
          25     0.15920     0.24438     0.18024     0.12728    -0.03789    -0.25082
          26    -0.05866    -0.07307    -0.17485    -0.13879     0.03255     0.08345
          27    -0.00357    -0.00206     0.07887    -0.00995    -0.00334     0.02974

                   13          14          15          16          17          18
 
 P.Frequency      977.15     1085.43     1174.28     1280.50     1406.52     1421.94
 
           1    -0.00008    -0.00002     0.04627    -0.09269    -0.00502     0.01374
           2    -0.00003     0.00000    -0.05055    -0.08228    -0.00551     0.02931
           3    -0.08573     0.04645    -0.00000    -0.00000     0.00000     0.00000
           4     0.00002     0.00000    -0.00861     0.08948    -0.02611     0.12054
           5     0.00008     0.00001     0.12701     0.08693     0.01667    -0.06441
           6     0.05974    -0.12763    -0.00000     0.00000    -0.00001    -0.00000
           7     0.00010    -0.00004     0.25259     0.03506     0.13704    -0.54023
           8     0.00009    -0.00001     0.07406     0.00695     0.07242    -0.27516
           9     0.59562    -0.07772     0.00000     0.00001    -0.00000    -0.00000
          10    -0.00034    -0.00001    -0.14793    -0.45503     0.10174    -0.35937
          11     0.00012    -0.00000     0.07293     0.11695    -0.06084     0.22914
          12    -0.05838    -0.12065     0.00001    -0.00001    -0.00000    -0.00000
          13    -0.00038    -0.00003    -0.35605     0.58713     0.03021    -0.30398
          14     0.00032     0.00004     0.33692    -0.18934    -0.01945     0.18250
          15    -0.57990     0.26472     0.00006    -0.00001     0.00001     0.00001
          16     0.00014     0.00001    -0.04744    -0.02241    -0.03859    -0.04460
          17    -0.00005    -0.00001    -0.11322    -0.00069     0.09978     0.04003
          18     0.04914     0.11542     0.00000     0.00000    -0.00001    -0.00001
          19     0.00024     0.00001    -0.09842    -0.02062     0.07600    -0.03735
          20    -0.00066    -0.00003     0.24387     0.03687    -0.48285    -0.00194
          21    -0.13152    -0.20578    -0.00005    -0.00001     0.00007     0.00003
          22     0.12836     0.16235     0.23307     0.07924     0.24260     0.08659
          23    -0.20426    -0.44289    -0.14500    -0.00926    -0.41521    -0.09660
          24    -0.05076    -0.13405     0.06000     0.02188    -0.22706    -0.04801
          25    -0.12891    -0.16228     0.23320     0.07927     0.24262     0.08661
          26     0.20438     0.44284    -0.14516    -0.00928    -0.41508    -0.09662
          27    -0.05075    -0.13427    -0.06001    -0.02189     0.22718     0.04805

                   19          20          21          22          23          24
 
 P.Frequency     1503.78     1515.93     1542.27     3112.89     3228.36     3230.78
 
           1    -0.05401    -0.00022     0.14724    -0.00030     0.00001     0.00596
           2     0.01323     0.00004    -0.00938     0.00000    -0.00000    -0.00075
           3    -0.00001     0.00320     0.00000    -0.00000     0.00064    -0.00000
           4     0.04482     0.00019    -0.15447     0.00187     0.00001     0.00446
           5    -0.03497    -0.00010     0.03661    -0.00036     0.00002     0.00756
           6     0.00005    -0.01582    -0.00001     0.00000    -0.00077     0.00000
           7     0.05714     0.00027    -0.21363     0.00198    -0.00004    -0.03971
           8     0.08134     0.00033    -0.22944    -0.00641     0.00007     0.06907
           9     0.00000    -0.00094    -0.00000    -0.00000    -0.00031    -0.00000
          10     0.13648     0.00050    -0.27485     0.00141    -0.00002    -0.02832
          11    -0.09871    -0.00039     0.24638     0.00414    -0.00005    -0.05664
          12     0.00003    -0.00852     0.00000     0.00000    -0.00352     0.00000
          13    -0.08228    -0.00030     0.16642    -0.00992    -0.00013    -0.06167
          14     0.04027     0.00020    -0.16632    -0.01532    -0.00021    -0.10127
          15    -0.00004     0.00072    -0.00002     0.00000    -0.00484     0.00001
          16    -0.06406    -0.00018     0.01052    -0.02251    -0.00017    -0.07601
          17    -0.00072    -0.00002    -0.01035     0.04082    -0.00008    -0.04274
          18     0.00015    -0.05633    -0.00002     0.00004    -0.08819     0.00018
          19     0.02557     0.00004     0.06523     0.54967     0.00176     0.75537
          20    -0.38476    -0.00075    -0.26331     0.11194     0.00033     0.13634
          21    -0.00183     0.71359     0.00039    -0.00001    -0.02082     0.00002
          22     0.36639     0.46205     0.10905    -0.14677    -0.17134     0.07795
          23     0.31497    -0.07037     0.10585    -0.28782    -0.35747     0.19083
          24     0.31945     0.05880     0.10210     0.46994     0.54021    -0.31917
          25     0.36882    -0.46013     0.10855    -0.14703     0.17160     0.07736
          26     0.31440     0.07194     0.10590    -0.28839     0.35814     0.18956
          27    -0.31993     0.05724    -0.10211    -0.47036     0.54080     0.31696

                   25          26          27
 
 P.Frequency     3242.56     3309.66     3383.98
 
           1     0.06136     0.01041     0.00140
           2    -0.00041     0.01401    -0.09478
           3     0.00000     0.00000    -0.00000
           4    -0.00206    -0.04303    -0.00617
           5     0.00705    -0.06979    -0.01073
           6    -0.00000     0.00000    -0.00000
           7    -0.33198     0.01210    -0.33975
           8     0.59567    -0.02310     0.57135
           9     0.00000    -0.00000     0.00000
          10    -0.33169    -0.08166     0.33256
          11    -0.59179    -0.14430     0.55854
          12    -0.00000    -0.00000     0.00000
          13    -0.04490     0.46789     0.07316
          14    -0.07910     0.80532     0.11641
          15    -0.00000     0.00000     0.00000
          16     0.00891    -0.00987    -0.00067
          17     0.00521    -0.00199     0.00073
          18    -0.00001    -0.00000    -0.00000
          19    -0.08452     0.09642     0.00618
          20    -0.01684     0.01379    -0.00069
          21     0.00000    -0.00000    -0.00000
          22    -0.00954     0.00559    -0.00372
          23    -0.02454     0.01806     0.00099
          24     0.03973    -0.02759    -0.00023
          25    -0.00951     0.00560    -0.00371
          26    -0.02448     0.01807     0.00099
          27    -0.03961     0.02760     0.00023


 ----------------------------------------------------------------------------

!!!!!!!!!!!!!!!!!!!!!!!!!!!!!!!!!!!!!!!!!!!!!!!!!!!!!!!!!!!!!!!!!!!!!!!
!!                                                                   !!
!!  WARNING: doctored file with artificially crazy frequency values  !!
!!                                                                   !!
!!!!!!!!!!!!!!!!!!!!!!!!!!!!!!!!!!!!!!!!!!!!!!!!!!!!!!!!!!!!!!!!!!!!!!!

 vib:animation  F

 Task  times  cpu:       76.1s     wall:       77.8s


                                NWChem Input Module
                                -------------------


 Summary of allocated global arrays
-----------------------------------
  No active global arrays



                         GA Statistics for process    0
                         ------------------------------

       create   destroy   get      put      acc     scatter   gather  read&inc
calls: 1.38e+04 1.39e+04 3.41e+05 2.15e+04 3.65e+05 1246        0     1.07e+04 
number of processes/call 1.75e+00 3.49e+00 2.64e+00 3.71e+00 0.00e+00
bytes total:             2.42e+08 2.72e+07 1.42e+08 2.40e+05 0.00e+00 8.59e+04
bytes remote:            1.60e+08 1.16e+07 1.10e+08 -5.23e+05 0.00e+00 0.00e+00
Max memory consumed for GA by this process: 728664 bytes

MA_summarize_allocated_blocks: starting scan ...
MA_summarize_allocated_blocks: scan completed: 0 heap blocks, 0 stack blocks
MA usage statistics:

	allocation statistics:
					      heap	     stack
					      ----	     -----
	current number of blocks	         0	         0
	maximum number of blocks	        25	        57
	current total bytes		         0	         0
	maximum total bytes		     80096	  66664896
	maximum total K-bytes		        81	     66665
	maximum total M-bytes		         1	        67


                                     CITATION
                                     --------
                Please cite the following reference when publishing
                           results obtained with NWChem:

                 M. Valiev, E.J. Bylaska, N. Govind, K. Kowalski,
              T.P. Straatsma, H.J.J. van Dam, D. Wang, J. Nieplocha,
                        E. Apra, T.L. Windus, W.A. de Jong
                 "NWChem: a comprehensive and scalable open-source
                  solution for large scale molecular simulations"
                      Comput. Phys. Commun. 181, 1477 (2010)
                           doi:10.1016/j.cpc.2010.04.018

                              AUTHORS & CONTRIBUTORS
                              ----------------------
          E. Apra, E. J. Bylaska, W. A. de Jong, N. Govind, K. Kowalski,
       T. P. Straatsma, M. Valiev, H. J. J. van Dam, D. Wang, T. L. Windus,
        J. Hammond, J. Autschbach, K. Bhaskaran-Nair, J. Brabec, K. Lopata,
     F. Aquino, S. Hirata, M. T. Hackler, J. Mullin, P. Nichols, R. Peverati,
    J. Pittner, Y. Zhao, P.-D. Fan, R. J. Harrison, M. Dupuis, D. Silverstein,
    D. M. A. Smith, J. Nieplocha, V. Tipparaju, M. Krishnan, B. E. Van Kuiken,
        A. Vazquez-Mayagoitia, L. Jensen, M. Swart, Q. Wu, T. Van Voorhis,
     A. A. Auer, M. Nooijen, L. D. Crosby, E. Brown, G. Cisneros, G. I. Fann,
     H. Fruchtl, J. Garza, K. Hirao, R. Kendall, J. A. Nichols, K. Tsemekhman,
      K. Wolinski, J. Anchell, D. Bernholdt, P. Borowski, T. Clark, D. Clerc,
      H. Dachsel, M. Deegan, K. Dyall, D. Elwood, E. Glendening, M. Gutowski,
      A. Hess, J. Jaffe, B. Johnson, J. Ju, R. Kobayashi, R. Kutteh, Z. Lin,
   R. Littlefield, X. Long, B. Meng, T. Nakajima, S. Niu, L. Pollack, M. Rosing,
   K. Glaesemann, G. Sandrone, M. Stave, H. Taylor, G. Thomas, J. H. van Lenthe,
                                A. Wong, Z. Zhang.

 Total times  cpu:      474.5s     wall:      504.6s
Application 6885743 resources: utime ~32008s, stime ~308s, Rss ~86100, inblocks ~94007573, outblocks ~1143126
