MPI startup(): Warning: I_MPI_PMI_LIBRARY will be ignored since the hydra process manager was found
 argument  1 = t87-mol.nw
                                         
                                         
 
 
             Northwest Computational Chemistry Package (NWChem) 7.0.2
             --------------------------------------------------------
 
 
                    Environmental Molecular Sciences Laboratory
                       Pacific Northwest National Laboratory
                                Richland, WA 99352
 
                              Copyright (c) 1994-2020
                       Pacific Northwest National Laboratory
                            Battelle Memorial Institute
 
             NWChem is an open-source computational chemistry package
                        distributed under the terms of the
                      Educational Community License (ECL) 2.0
             A copy of the license is included with this distribution
                              in the LICENSE.TXT file
 
                                  ACKNOWLEDGMENT
                                  --------------

            This software and its documentation were developed at the
            EMSL at Pacific Northwest National Laboratory, a multiprogram
            national laboratory, operated for the U.S. Department of Energy
            by Battelle under Contract Number DE-AC05-76RL01830. Support
            for this work was provided by the Department of Energy Office
            of Biological and Environmental Research, Office of Basic
            Energy Sciences, and the Office of Advanced Scientific Computing.


           Job information
           ---------------

    hostname        = c5-57
    program         = nwchem
    date            = Mon Nov 20 21:54:25 2023

    compiled        = Thu_Apr_13_12:34:06_2023
    source          = /tmp/eb-6itark0s/tmp_dxlr5wq-NWChem-7.0.2
    nwchem branch   = 7.0.2
    nwchem revision = b9985dfa
    ga revision     = N/A
    use scalapack   = T
    input           = t87-mol.nw
    prefix          = t87-mol.
    data base       = ./t87-mol.db
    status          = startup
    nproc           =        1
    time left       =     -1s



           Memory information
           ------------------

    heap     =  171752298 doubles =   1310.4 Mbytes
    stack    =  171752297 doubles =   1310.4 Mbytes
    global   =   98144170 doubles =    748.8 Mbytes (distinct from heap & stack)
    total    =  441648765 doubles =   3369.5 Mbytes
    verify   = yes
    hardfail = no 


           Directory information
           ---------------------
 
  0 permanent = .
  0 scratch   = .
 
 
 
 
                                NWChem Input Module
                                -------------------
 
 
  library name resolved from: environment
  library file name is: <
 /cluster/software/NWChem/7.0.2-intel-2021a/data/libraries/>
  
                      Basis "ao basis" -> "" (spherical)
                      -----
  H (Hydrogen)
  ------------
            Exponent  Coefficients 
       -------------- ---------------------------------------------------------
  1 S  1.92384000E+01  0.032828
  1 S  2.89870000E+00  0.231204
  1 S  6.53500000E-01  0.817226
 
  2 S  1.77600000E-01  1.000000
 
  Ru1 (Ruthenium)
  ---------------
            Exponent  Coefficients 
       -------------- ---------------------------------------------------------
  1 S  2.56500000E+00 -1.043106
  1 S  1.50800000E+00  1.331479
  1 S  5.12900000E-01  0.561306
 
  2 S  2.56500000E+00  0.877013
  2 S  1.50800000E+00 -1.263466
  2 S  5.12900000E-01 -0.838499
  2 S  1.36200000E-01  1.063777
 
  3 S  4.17000000E-02  1.000000
 
  4 P  4.85900000E+00 -0.094575
  4 P  1.21900000E+00  0.743480
  4 P  4.41300000E-01  0.366814
 
  5 P  5.72500000E-01 -0.088086
  5 P  8.30000000E-02  1.028397
 
  6 P  2.50000000E-02  1.000000
 
  7 D  4.19500000E+00  0.048573
  7 D  1.37700000E+00  0.510522
  7 D  4.82800000E-01  0.573003
 
  8 D  1.50100000E-01  1.000000
 
  C2 (Carbon)
  -----------
            Exponent  Coefficients 
       -------------- ---------------------------------------------------------
  1 S  4.23300000E+03  0.001220
  1 S  6.34900000E+02  0.009342
  1 S  1.46100000E+02  0.045452
  1 S  4.25000000E+01  0.154657
  1 S  1.41900000E+01  0.358866
  1 S  5.14800000E+00  0.438632
  1 S  1.96700000E+00  0.145918
 
  2 S  5.14800000E+00 -0.168367
  2 S  4.96200000E-01  1.060091
 
  3 S  1.53300000E-01  1.000000
 
  4 P  1.81600000E+01  0.018539
  4 P  3.98600000E+00  0.115436
  4 P  1.14300000E+00  0.386188
  4 P  3.59400000E-01  0.640114
 
  5 P  1.14600000E-01  1.000000
 
  6 D  5.87000000E-01  1.000000
 
  C3 (Carbon)
  -----------
            Exponent  Coefficients 
       -------------- ---------------------------------------------------------
  1 S  4.23300000E+03  0.001220
  1 S  6.34900000E+02  0.009342
  1 S  1.46100000E+02  0.045452
  1 S  4.25000000E+01  0.154657
  1 S  1.41900000E+01  0.358866
  1 S  5.14800000E+00  0.438632
  1 S  1.96700000E+00  0.145918
 
  2 S  5.14800000E+00 -0.168367
  2 S  4.96200000E-01  1.060091
 
  3 S  1.53300000E-01  1.000000
 
  4 P  1.81600000E+01  0.018539
  4 P  3.98600000E+00  0.115436
  4 P  1.14300000E+00  0.386188
  4 P  3.59400000E-01  0.640114
 
  5 P  1.14600000E-01  1.000000
 
  6 D  5.87000000E-01  1.000000
 
  C4 (Carbon)
  -----------
            Exponent  Coefficients 
       -------------- ---------------------------------------------------------
  1 S  4.23300000E+03  0.001220
  1 S  6.34900000E+02  0.009342
  1 S  1.46100000E+02  0.045452
  1 S  4.25000000E+01  0.154657
  1 S  1.41900000E+01  0.358866
  1 S  5.14800000E+00  0.438632
  1 S  1.96700000E+00  0.145918
 
  2 S  5.14800000E+00 -0.168367
  2 S  4.96200000E-01  1.060091
 
  3 S  1.53300000E-01  1.000000
 
  4 P  1.81600000E+01  0.018539
  4 P  3.98600000E+00  0.115436
  4 P  1.14300000E+00  0.386188
  4 P  3.59400000E-01  0.640114
 
  5 P  1.14600000E-01  1.000000
 
  N5 (Nitrogen)
  -------------
            Exponent  Coefficients 
       -------------- ---------------------------------------------------------
  1 S  5.90900000E+03  0.001190
  1 S  8.87500000E+02  0.009099
  1 S  2.04700000E+02  0.044145
  1 S  5.98400000E+01  0.150464
  1 S  2.00000000E+01  0.356741
  1 S  7.19300000E+00  0.446533
  1 S  2.68600000E+00  0.145603
 
  2 S  7.19300000E+00 -0.160405
  2 S  7.00000000E-01  1.058215
 
  3 S  2.13300000E-01  1.000000
 
  4 P  2.67900000E+01  0.018254
  4 P  5.95600000E+00  0.116461
  4 P  1.70700000E+00  0.390178
  4 P  5.31400000E-01  0.637102
 
  5 P  1.65400000E-01  1.000000
 
  6 D  7.36000000E-01  1.000000
 
  N6 (Nitrogen)
  -------------
            Exponent  Coefficients 
       -------------- ---------------------------------------------------------
  1 S  5.90900000E+03  0.001190
  1 S  8.87500000E+02  0.009099
  1 S  2.04700000E+02  0.044145
  1 S  5.98400000E+01  0.150464
  1 S  2.00000000E+01  0.356741
  1 S  7.19300000E+00  0.446533
  1 S  2.68600000E+00  0.145603
 
  2 S  7.19300000E+00 -0.160405
  2 S  7.00000000E-01  1.058215
 
  3 S  2.13300000E-01  1.000000
 
  4 P  2.67900000E+01  0.018254
  4 P  5.95600000E+00  0.116461
  4 P  1.70700000E+00  0.390178
  4 P  5.31400000E-01  0.637102
 
  5 P  1.65400000E-01  1.000000
 
  6 D  7.36000000E-01  1.000000
 
  C7 (Carbon)
  -----------
            Exponent  Coefficients 
       -------------- ---------------------------------------------------------
  1 S  4.23300000E+03  0.001220
  1 S  6.34900000E+02  0.009342
  1 S  1.46100000E+02  0.045452
  1 S  4.25000000E+01  0.154657
  1 S  1.41900000E+01  0.358866
  1 S  5.14800000E+00  0.438632
  1 S  1.96700000E+00  0.145918
 
  2 S  5.14800000E+00 -0.168367
  2 S  4.96200000E-01  1.060091
 
  3 S  1.53300000E-01  1.000000
 
  4 P  1.81600000E+01  0.018539
  4 P  3.98600000E+00  0.115436
  4 P  1.14300000E+00  0.386188
  4 P  3.59400000E-01  0.640114
 
  5 P  1.14600000E-01  1.000000
 
  6 D  5.87000000E-01  1.000000
 
  N14 (Nitrogen)
  --------------
            Exponent  Coefficients 
       -------------- ---------------------------------------------------------
  1 S  5.90900000E+03  0.001190
  1 S  8.87500000E+02  0.009099
  1 S  2.04700000E+02  0.044145
  1 S  5.98400000E+01  0.150464
  1 S  2.00000000E+01  0.356741
  1 S  7.19300000E+00  0.446533
  1 S  2.68600000E+00  0.145603
 
  2 S  7.19300000E+00 -0.160405
  2 S  7.00000000E-01  1.058215
 
  3 S  2.13300000E-01  1.000000
 
  4 P  2.67900000E+01  0.018254
  4 P  5.95600000E+00  0.116461
  4 P  1.70700000E+00  0.390178
  4 P  5.31400000E-01  0.637102
 
  5 P  1.65400000E-01  1.000000
 
  6 D  7.36000000E-01  1.000000
 
  N15 (Nitrogen)
  --------------
            Exponent  Coefficients 
       -------------- ---------------------------------------------------------
  1 S  5.90900000E+03  0.001190
  1 S  8.87500000E+02  0.009099
  1 S  2.04700000E+02  0.044145
  1 S  5.98400000E+01  0.150464
  1 S  2.00000000E+01  0.356741
  1 S  7.19300000E+00  0.446533
  1 S  2.68600000E+00  0.145603
 
  2 S  7.19300000E+00 -0.160405
  2 S  7.00000000E-01  1.058215
 
  3 S  2.13300000E-01  1.000000
 
  4 P  2.67900000E+01  0.018254
  4 P  5.95600000E+00  0.116461
  4 P  1.70700000E+00  0.390178
  4 P  5.31400000E-01  0.637102
 
  5 P  1.65400000E-01  1.000000
 
  6 D  7.36000000E-01  1.000000
 
  C16 (Carbon)
  ------------
            Exponent  Coefficients 
       -------------- ---------------------------------------------------------
  1 S  4.23300000E+03  0.001220
  1 S  6.34900000E+02  0.009342
  1 S  1.46100000E+02  0.045452
  1 S  4.25000000E+01  0.154657
  1 S  1.41900000E+01  0.358866
  1 S  5.14800000E+00  0.438632
  1 S  1.96700000E+00  0.145918
 
  2 S  5.14800000E+00 -0.168367
  2 S  4.96200000E-01  1.060091
 
  3 S  1.53300000E-01  1.000000
 
  4 P  1.81600000E+01  0.018539
  4 P  3.98600000E+00  0.115436
  4 P  1.14300000E+00  0.386188
  4 P  3.59400000E-01  0.640114
 
  5 P  1.14600000E-01  1.000000
 
  C17 (Carbon)
  ------------
            Exponent  Coefficients 
       -------------- ---------------------------------------------------------
  1 S  4.23300000E+03  0.001220
  1 S  6.34900000E+02  0.009342
  1 S  1.46100000E+02  0.045452
  1 S  4.25000000E+01  0.154657
  1 S  1.41900000E+01  0.358866
  1 S  5.14800000E+00  0.438632
  1 S  1.96700000E+00  0.145918
 
  2 S  5.14800000E+00 -0.168367
  2 S  4.96200000E-01  1.060091
 
  3 S  1.53300000E-01  1.000000
 
  4 P  1.81600000E+01  0.018539
  4 P  3.98600000E+00  0.115436
  4 P  1.14300000E+00  0.386188
  4 P  3.59400000E-01  0.640114
 
  5 P  1.14600000E-01  1.000000
 
  C18 (Carbon)
  ------------
            Exponent  Coefficients 
       -------------- ---------------------------------------------------------
  1 S  4.23300000E+03  0.001220
  1 S  6.34900000E+02  0.009342
  1 S  1.46100000E+02  0.045452
  1 S  4.25000000E+01  0.154657
  1 S  1.41900000E+01  0.358866
  1 S  5.14800000E+00  0.438632
  1 S  1.96700000E+00  0.145918
 
  2 S  5.14800000E+00 -0.168367
  2 S  4.96200000E-01  1.060091
 
  3 S  1.53300000E-01  1.000000
 
  4 P  1.81600000E+01  0.018539
  4 P  3.98600000E+00  0.115436
  4 P  1.14300000E+00  0.386188
  4 P  3.59400000E-01  0.640114
 
  5 P  1.14600000E-01  1.000000
 
  C19 (Carbon)
  ------------
            Exponent  Coefficients 
       -------------- ---------------------------------------------------------
  1 S  4.23300000E+03  0.001220
  1 S  6.34900000E+02  0.009342
  1 S  1.46100000E+02  0.045452
  1 S  4.25000000E+01  0.154657
  1 S  1.41900000E+01  0.358866
  1 S  5.14800000E+00  0.438632
  1 S  1.96700000E+00  0.145918
 
  2 S  5.14800000E+00 -0.168367
  2 S  4.96200000E-01  1.060091
 
  3 S  1.53300000E-01  1.000000
 
  4 P  1.81600000E+01  0.018539
  4 P  3.98600000E+00  0.115436
  4 P  1.14300000E+00  0.386188
  4 P  3.59400000E-01  0.640114
 
  5 P  1.14600000E-01  1.000000
 
  C20 (Carbon)
  ------------
            Exponent  Coefficients 
       -------------- ---------------------------------------------------------
  1 S  4.23300000E+03  0.001220
  1 S  6.34900000E+02  0.009342
  1 S  1.46100000E+02  0.045452
  1 S  4.25000000E+01  0.154657
  1 S  1.41900000E+01  0.358866
  1 S  5.14800000E+00  0.438632
  1 S  1.96700000E+00  0.145918
 
  2 S  5.14800000E+00 -0.168367
  2 S  4.96200000E-01  1.060091
 
  3 S  1.53300000E-01  1.000000
 
  4 P  1.81600000E+01  0.018539
  4 P  3.98600000E+00  0.115436
  4 P  1.14300000E+00  0.386188
  4 P  3.59400000E-01  0.640114
 
  5 P  1.14600000E-01  1.000000
 
  C21 (Carbon)
  ------------
            Exponent  Coefficients 
       -------------- ---------------------------------------------------------
  1 S  4.23300000E+03  0.001220
  1 S  6.34900000E+02  0.009342
  1 S  1.46100000E+02  0.045452
  1 S  4.25000000E+01  0.154657
  1 S  1.41900000E+01  0.358866
  1 S  5.14800000E+00  0.438632
  1 S  1.96700000E+00  0.145918
 
  2 S  5.14800000E+00 -0.168367
  2 S  4.96200000E-01  1.060091
 
  3 S  1.53300000E-01  1.000000
 
  4 P  1.81600000E+01  0.018539
  4 P  3.98600000E+00  0.115436
  4 P  1.14300000E+00  0.386188
  4 P  3.59400000E-01  0.640114
 
  5 P  1.14600000E-01  1.000000
 
  C22 (Carbon)
  ------------
            Exponent  Coefficients 
       -------------- ---------------------------------------------------------
  1 S  4.23300000E+03  0.001220
  1 S  6.34900000E+02  0.009342
  1 S  1.46100000E+02  0.045452
  1 S  4.25000000E+01  0.154657
  1 S  1.41900000E+01  0.358866
  1 S  5.14800000E+00  0.438632
  1 S  1.96700000E+00  0.145918
 
  2 S  5.14800000E+00 -0.168367
  2 S  4.96200000E-01  1.060091
 
  3 S  1.53300000E-01  1.000000
 
  4 P  1.81600000E+01  0.018539
  4 P  3.98600000E+00  0.115436
  4 P  1.14300000E+00  0.386188
  4 P  3.59400000E-01  0.640114
 
  5 P  1.14600000E-01  1.000000
 
  C23 (Carbon)
  ------------
            Exponent  Coefficients 
       -------------- ---------------------------------------------------------
  1 S  4.23300000E+03  0.001220
  1 S  6.34900000E+02  0.009342
  1 S  1.46100000E+02  0.045452
  1 S  4.25000000E+01  0.154657
  1 S  1.41900000E+01  0.358866
  1 S  5.14800000E+00  0.438632
  1 S  1.96700000E+00  0.145918
 
  2 S  5.14800000E+00 -0.168367
  2 S  4.96200000E-01  1.060091
 
  3 S  1.53300000E-01  1.000000
 
  4 P  1.81600000E+01  0.018539
  4 P  3.98600000E+00  0.115436
  4 P  1.14300000E+00  0.386188
  4 P  3.59400000E-01  0.640114
 
  5 P  1.14600000E-01  1.000000
 
  C25 (Carbon)
  ------------
            Exponent  Coefficients 
       -------------- ---------------------------------------------------------
  1 S  4.23300000E+03  0.001220
  1 S  6.34900000E+02  0.009342
  1 S  1.46100000E+02  0.045452
  1 S  4.25000000E+01  0.154657
  1 S  1.41900000E+01  0.358866
  1 S  5.14800000E+00  0.438632
  1 S  1.96700000E+00  0.145918
 
  2 S  5.14800000E+00 -0.168367
  2 S  4.96200000E-01  1.060091
 
  3 S  1.53300000E-01  1.000000
 
  4 P  1.81600000E+01  0.018539
  4 P  3.98600000E+00  0.115436
  4 P  1.14300000E+00  0.386188
  4 P  3.59400000E-01  0.640114
 
  5 P  1.14600000E-01  1.000000
 
  C27 (Carbon)
  ------------
            Exponent  Coefficients 
       -------------- ---------------------------------------------------------
  1 S  4.23300000E+03  0.001220
  1 S  6.34900000E+02  0.009342
  1 S  1.46100000E+02  0.045452
  1 S  4.25000000E+01  0.154657
  1 S  1.41900000E+01  0.358866
  1 S  5.14800000E+00  0.438632
  1 S  1.96700000E+00  0.145918
 
  2 S  5.14800000E+00 -0.168367
  2 S  4.96200000E-01  1.060091
 
  3 S  1.53300000E-01  1.000000
 
  4 P  1.81600000E+01  0.018539
  4 P  3.98600000E+00  0.115436
  4 P  1.14300000E+00  0.386188
  4 P  3.59400000E-01  0.640114
 
  5 P  1.14600000E-01  1.000000
 
  C31 (Carbon)
  ------------
            Exponent  Coefficients 
       -------------- ---------------------------------------------------------
  1 S  4.23300000E+03  0.001220
  1 S  6.34900000E+02  0.009342
  1 S  1.46100000E+02  0.045452
  1 S  4.25000000E+01  0.154657
  1 S  1.41900000E+01  0.358866
  1 S  5.14800000E+00  0.438632
  1 S  1.96700000E+00  0.145918
 
  2 S  5.14800000E+00 -0.168367
  2 S  4.96200000E-01  1.060091
 
  3 S  1.53300000E-01  1.000000
 
  4 P  1.81600000E+01  0.018539
  4 P  3.98600000E+00  0.115436
  4 P  1.14300000E+00  0.386188
  4 P  3.59400000E-01  0.640114
 
  5 P  1.14600000E-01  1.000000
 
  C32 (Carbon)
  ------------
            Exponent  Coefficients 
       -------------- ---------------------------------------------------------
  1 S  4.23300000E+03  0.001220
  1 S  6.34900000E+02  0.009342
  1 S  1.46100000E+02  0.045452
  1 S  4.25000000E+01  0.154657
  1 S  1.41900000E+01  0.358866
  1 S  5.14800000E+00  0.438632
  1 S  1.96700000E+00  0.145918
 
  2 S  5.14800000E+00 -0.168367
  2 S  4.96200000E-01  1.060091
 
  3 S  1.53300000E-01  1.000000
 
  4 P  1.81600000E+01  0.018539
  4 P  3.98600000E+00  0.115436
  4 P  1.14300000E+00  0.386188
  4 P  3.59400000E-01  0.640114
 
  5 P  1.14600000E-01  1.000000
 
  C33 (Carbon)
  ------------
            Exponent  Coefficients 
       -------------- ---------------------------------------------------------
  1 S  4.23300000E+03  0.001220
  1 S  6.34900000E+02  0.009342
  1 S  1.46100000E+02  0.045452
  1 S  4.25000000E+01  0.154657
  1 S  1.41900000E+01  0.358866
  1 S  5.14800000E+00  0.438632
  1 S  1.96700000E+00  0.145918
 
  2 S  5.14800000E+00 -0.168367
  2 S  4.96200000E-01  1.060091
 
  3 S  1.53300000E-01  1.000000
 
  4 P  1.81600000E+01  0.018539
  4 P  3.98600000E+00  0.115436
  4 P  1.14300000E+00  0.386188
  4 P  3.59400000E-01  0.640114
 
  5 P  1.14600000E-01  1.000000
 
  C35 (Carbon)
  ------------
            Exponent  Coefficients 
       -------------- ---------------------------------------------------------
  1 S  4.23300000E+03  0.001220
  1 S  6.34900000E+02  0.009342
  1 S  1.46100000E+02  0.045452
  1 S  4.25000000E+01  0.154657
  1 S  1.41900000E+01  0.358866
  1 S  5.14800000E+00  0.438632
  1 S  1.96700000E+00  0.145918
 
  2 S  5.14800000E+00 -0.168367
  2 S  4.96200000E-01  1.060091
 
  3 S  1.53300000E-01  1.000000
 
  4 P  1.81600000E+01  0.018539
  4 P  3.98600000E+00  0.115436
  4 P  1.14300000E+00  0.386188
  4 P  3.59400000E-01  0.640114
 
  5 P  1.14600000E-01  1.000000
 
  C37 (Carbon)
  ------------
            Exponent  Coefficients 
       -------------- ---------------------------------------------------------
  1 S  4.23300000E+03  0.001220
  1 S  6.34900000E+02  0.009342
  1 S  1.46100000E+02  0.045452
  1 S  4.25000000E+01  0.154657
  1 S  1.41900000E+01  0.358866
  1 S  5.14800000E+00  0.438632
  1 S  1.96700000E+00  0.145918
 
  2 S  5.14800000E+00 -0.168367
  2 S  4.96200000E-01  1.060091
 
  3 S  1.53300000E-01  1.000000
 
  4 P  1.81600000E+01  0.018539
  4 P  3.98600000E+00  0.115436
  4 P  1.14300000E+00  0.386188
  4 P  3.59400000E-01  0.640114
 
  5 P  1.14600000E-01  1.000000
 
  C41 (Carbon)
  ------------
            Exponent  Coefficients 
       -------------- ---------------------------------------------------------
  1 S  4.23300000E+03  0.001220
  1 S  6.34900000E+02  0.009342
  1 S  1.46100000E+02  0.045452
  1 S  4.25000000E+01  0.154657
  1 S  1.41900000E+01  0.358866
  1 S  5.14800000E+00  0.438632
  1 S  1.96700000E+00  0.145918
 
  2 S  5.14800000E+00 -0.168367
  2 S  4.96200000E-01  1.060091
 
  3 S  1.53300000E-01  1.000000
 
  4 P  1.81600000E+01  0.018539
  4 P  3.98600000E+00  0.115436
  4 P  1.14300000E+00  0.386188
  4 P  3.59400000E-01  0.640114
 
  5 P  1.14600000E-01  1.000000
 
  C42 (Carbon)
  ------------
            Exponent  Coefficients 
       -------------- ---------------------------------------------------------
  1 S  4.23300000E+03  0.001220
  1 S  6.34900000E+02  0.009342
  1 S  1.46100000E+02  0.045452
  1 S  4.25000000E+01  0.154657
  1 S  1.41900000E+01  0.358866
  1 S  5.14800000E+00  0.438632
  1 S  1.96700000E+00  0.145918
 
  2 S  5.14800000E+00 -0.168367
  2 S  4.96200000E-01  1.060091
 
  3 S  1.53300000E-01  1.000000
 
  4 P  1.81600000E+01  0.018539
  4 P  3.98600000E+00  0.115436
  4 P  1.14300000E+00  0.386188
  4 P  3.59400000E-01  0.640114
 
  5 P  1.14600000E-01  1.000000
 
  C43 (Carbon)
  ------------
            Exponent  Coefficients 
       -------------- ---------------------------------------------------------
  1 S  4.23300000E+03  0.001220
  1 S  6.34900000E+02  0.009342
  1 S  1.46100000E+02  0.045452
  1 S  4.25000000E+01  0.154657
  1 S  1.41900000E+01  0.358866
  1 S  5.14800000E+00  0.438632
  1 S  1.96700000E+00  0.145918
 
  2 S  5.14800000E+00 -0.168367
  2 S  4.96200000E-01  1.060091
 
  3 S  1.53300000E-01  1.000000
 
  4 P  1.81600000E+01  0.018539
  4 P  3.98600000E+00  0.115436
  4 P  1.14300000E+00  0.386188
  4 P  3.59400000E-01  0.640114
 
  5 P  1.14600000E-01  1.000000
 
  C45 (Carbon)
  ------------
            Exponent  Coefficients 
       -------------- ---------------------------------------------------------
  1 S  4.23300000E+03  0.001220
  1 S  6.34900000E+02  0.009342
  1 S  1.46100000E+02  0.045452
  1 S  4.25000000E+01  0.154657
  1 S  1.41900000E+01  0.358866
  1 S  5.14800000E+00  0.438632
  1 S  1.96700000E+00  0.145918
 
  2 S  5.14800000E+00 -0.168367
  2 S  4.96200000E-01  1.060091
 
  3 S  1.53300000E-01  1.000000
 
  4 P  1.81600000E+01  0.018539
  4 P  3.98600000E+00  0.115436
  4 P  1.14300000E+00  0.386188
  4 P  3.59400000E-01  0.640114
 
  5 P  1.14600000E-01  1.000000
 
  C47 (Carbon)
  ------------
            Exponent  Coefficients 
       -------------- ---------------------------------------------------------
  1 S  4.23300000E+03  0.001220
  1 S  6.34900000E+02  0.009342
  1 S  1.46100000E+02  0.045452
  1 S  4.25000000E+01  0.154657
  1 S  1.41900000E+01  0.358866
  1 S  5.14800000E+00  0.438632
  1 S  1.96700000E+00  0.145918
 
  2 S  5.14800000E+00 -0.168367
  2 S  4.96200000E-01  1.060091
 
  3 S  1.53300000E-01  1.000000
 
  4 P  1.81600000E+01  0.018539
  4 P  3.98600000E+00  0.115436
  4 P  1.14300000E+00  0.386188
  4 P  3.59400000E-01  0.640114
 
  5 P  1.14600000E-01  1.000000
 
  C51 (Carbon)
  ------------
            Exponent  Coefficients 
       -------------- ---------------------------------------------------------
  1 S  4.23300000E+03  0.001220
  1 S  6.34900000E+02  0.009342
  1 S  1.46100000E+02  0.045452
  1 S  4.25000000E+01  0.154657
  1 S  1.41900000E+01  0.358866
  1 S  5.14800000E+00  0.438632
  1 S  1.96700000E+00  0.145918
 
  2 S  5.14800000E+00 -0.168367
  2 S  4.96200000E-01  1.060091
 
  3 S  1.53300000E-01  1.000000
 
  4 P  1.81600000E+01  0.018539
  4 P  3.98600000E+00  0.115436
  4 P  1.14300000E+00  0.386188
  4 P  3.59400000E-01  0.640114
 
  5 P  1.14600000E-01  1.000000
 
  C55 (Carbon)
  ------------
            Exponent  Coefficients 
       -------------- ---------------------------------------------------------
  1 S  4.23300000E+03  0.001220
  1 S  6.34900000E+02  0.009342
  1 S  1.46100000E+02  0.045452
  1 S  4.25000000E+01  0.154657
  1 S  1.41900000E+01  0.358866
  1 S  5.14800000E+00  0.438632
  1 S  1.96700000E+00  0.145918
 
  2 S  5.14800000E+00 -0.168367
  2 S  4.96200000E-01  1.060091
 
  3 S  1.53300000E-01  1.000000
 
  4 P  1.81600000E+01  0.018539
  4 P  3.98600000E+00  0.115436
  4 P  1.14300000E+00  0.386188
  4 P  3.59400000E-01  0.640114
 
  5 P  1.14600000E-01  1.000000
 
  S56 (Sulphur)
  -------------
            Exponent  Coefficients 
       -------------- ---------------------------------------------------------
  1 S  1.85000000E+00 -0.532434
  1 S  4.03500000E-01  1.276380
 
  2 S  1.43800000E-01  1.000000
 
  3 P  4.94500000E+00 -0.060812
  3 P  4.87000000E-01  1.013269
 
  4 P  1.37900000E-01  1.000000
 
  5 D  4.96000000E-01  1.000000
 
  C57 (Carbon)
  ------------
            Exponent  Coefficients 
       -------------- ---------------------------------------------------------
  1 S  4.23300000E+03  0.001220
  1 S  6.34900000E+02  0.009342
  1 S  1.46100000E+02  0.045452
  1 S  4.25000000E+01  0.154657
  1 S  1.41900000E+01  0.358866
  1 S  5.14800000E+00  0.438632
  1 S  1.96700000E+00  0.145918
 
  2 S  5.14800000E+00 -0.168367
  2 S  4.96200000E-01  1.060091
 
  3 S  1.53300000E-01  1.000000
 
  4 P  1.81600000E+01  0.018539
  4 P  3.98600000E+00  0.115436
  4 P  1.14300000E+00  0.386188
  4 P  3.59400000E-01  0.640114
 
  5 P  1.14600000E-01  1.000000
 
  S58 (Sulphur)
  -------------
            Exponent  Coefficients 
       -------------- ---------------------------------------------------------
  1 S  1.85000000E+00 -0.532434
  1 S  4.03500000E-01  1.276380
 
  2 S  1.43800000E-01  1.000000
 
  3 P  4.94500000E+00 -0.060812
  3 P  4.87000000E-01  1.013269
 
  4 P  1.37900000E-01  1.000000
 
  5 D  4.96000000E-01  1.000000
 


 Summary of "ao basis" -> "" (spherical)
 ------------------------------------------------------------------------------
       Tag                 Description            Shells   Functions and Types
 ---------------- ------------------------------  ------  ---------------------
 H                        lanl2dz ecp                2        2   2s
 Ru1                     user specified              8       22   3s3p2d
 C2                      user specified              6       14   3s2p1d
 C3                      user specified              6       14   3s2p1d
 C4                       lanl2dz ecp                5        9   3s2p
 N5                      user specified              6       14   3s2p1d
 N6                      user specified              6       14   3s2p1d
 C7                      user specified              6       14   3s2p1d
 N14                     user specified              6       14   3s2p1d
 N15                     user specified              6       14   3s2p1d
 C16                      lanl2dz ecp                5        9   3s2p
 C17                      lanl2dz ecp                5        9   3s2p
 C18                      lanl2dz ecp                5        9   3s2p
 C19                      lanl2dz ecp                5        9   3s2p
 C20                      lanl2dz ecp                5        9   3s2p
 C21                      lanl2dz ecp                5        9   3s2p
 C22                      lanl2dz ecp                5        9   3s2p
 C23                      lanl2dz ecp                5        9   3s2p
 C25                      lanl2dz ecp                5        9   3s2p
 C27                      lanl2dz ecp                5        9   3s2p
 C31                      lanl2dz ecp                5        9   3s2p
 C32                      lanl2dz ecp                5        9   3s2p
 C33                      lanl2dz ecp                5        9   3s2p
 C35                      lanl2dz ecp                5        9   3s2p
 C37                      lanl2dz ecp                5        9   3s2p
 C41                      lanl2dz ecp                5        9   3s2p
 C42                      lanl2dz ecp                5        9   3s2p
 C43                      lanl2dz ecp                5        9   3s2p
 C45                      lanl2dz ecp                5        9   3s2p
 C47                      lanl2dz ecp                5        9   3s2p
 C51                      lanl2dz ecp                5        9   3s2p
 C55                      lanl2dz ecp                5        9   3s2p
 S56                     user specified              5       13   2s2p1d
 C57                      lanl2dz ecp                5        9   3s2p
 S58                     user specified              5       13   2s2p1d


  library name resolved from: environment
  library file name is: <
 /cluster/software/NWChem/7.0.2-intel-2021a/data/libraries/>
  
                 ECP       "ecp basis" -> "" (cartesian)
                -----
  Ru1 (Ruthenium) Replaces    28 electrons
  ----------------------------------------
             Channel    R-exponent     Exponent     Coefficients
         ------------ ---------------------------------------------------------
  1 U L       Both         0.00      554.379630      -0.051527
  1 U L       Both         1.00      155.106687     -20.181654
  1 U L       Both         2.00       48.497626    -105.996691
  1 U L       Both         2.00       14.770159     -42.216679
  1 U L       Both         2.00        5.207736      -3.767502
 
  2 U-s       Both         0.00       66.711806       2.957834
  2 U-s       Both         1.00       77.350363      25.374871
  2 U-s       Both         2.00       18.357145     536.126237
  2 U-s       Both         2.00       11.840473    -651.205722
  2 U-s       Both         2.00        8.117948     381.381694
 
  3 U-p       Both         0.00       54.993792       4.965156
  3 U-p       Both         1.00       13.939921      23.886150
  3 U-p       Both         2.00       15.211825     464.463134
  3 U-p       Both         2.00       10.546069    -714.445179
  3 U-p       Both         2.00        7.553949     377.550359
 
  4 U-d       Both         0.00       60.344459       3.035299
  4 U-d       Both         1.00       45.210030      23.290172
  4 U-d       Both         2.00       19.119007     146.092662
  4 U-d       Both         2.00        4.271209      28.912977
 
  S56 (Sulphur) Replaces    10 electrons
  --------------------------------------
             Channel    R-exponent     Exponent     Coefficients
         ------------ ---------------------------------------------------------
  1 U L       Both         1.00      532.668522     -10.000000
  1 U L       Both         2.00      108.134225     -85.359385
  1 U L       Both         2.00       24.569766     -30.451329
  1 U L       Both         2.00        7.370244     -10.374589
  1 U L       Both         2.00        2.371257      -0.989929
 
  2 U-s       Both         0.00      106.317678       3.000000
  2 U-s       Both         1.00      100.824583      10.628404
  2 U-s       Both         2.00       53.585847     223.636047
  2 U-s       Both         2.00       15.370633      93.646085
  2 U-s       Both         2.00        3.177840      28.760906
 
  3 U-p       Both         0.00      101.970918       5.000000
  3 U-p       Both         1.00       93.280897       6.096984
  3 U-p       Both         2.00       65.143177     285.442550
  3 U-p       Both         2.00       24.634744     147.144841
  3 U-p       Both         2.00        7.812053      53.656978
  3 U-p       Both         2.00        2.311273       8.924956
 
  S58 (Sulphur) Replaces    10 electrons
  --------------------------------------
             Channel    R-exponent     Exponent     Coefficients
         ------------ ---------------------------------------------------------
  1 U L       Both         1.00      532.668522     -10.000000
  1 U L       Both         2.00      108.134225     -85.359385
  1 U L       Both         2.00       24.569766     -30.451329
  1 U L       Both         2.00        7.370244     -10.374589
  1 U L       Both         2.00        2.371257      -0.989929
 
  2 U-s       Both         0.00      106.317678       3.000000
  2 U-s       Both         1.00      100.824583      10.628404
  2 U-s       Both         2.00       53.585847     223.636047
  2 U-s       Both         2.00       15.370633      93.646085
  2 U-s       Both         2.00        3.177840      28.760906
 
  3 U-p       Both         0.00      101.970918       5.000000
  3 U-p       Both         1.00       93.280897       6.096984
  3 U-p       Both         2.00       65.143177     285.442550
  3 U-p       Both         2.00       24.634744     147.144841
  3 U-p       Both         2.00        7.812053      53.656978
  3 U-p       Both         2.00        2.311273       8.924956
 

 Scaling coordinates for geometry "geometry" by  1.889725989
 (inverse scale =  0.529177249)

 Turning off AUTOSYM since
 SYMMETRY directive was detected!
 

          ------
          auto-z
          ------
 !! There are insufficient internal variables: expected   167 got   168
 !! Either AUTOZ failed or your geometry has changed so much that the
 !! coordinates should be regenerated.
 ------------------------------------------------------------------------
 geom_binvr: #indep variables incorrect            16700168
 ------------------------------------------------------------------------
 ------------------------------------------------------------------------
  current input line : 
   365: end
 ------------------------------------------------------------------------
 ------------------------------------------------------------------------
 There is an error related to the specified geometry
 ------------------------------------------------------------------------
 For more information see the NWChem manual at 
 https://github.com/nwchemgit/nwchem/wiki


 For further details see manual section: 
                                                                                
                                                                                
                                                                                
                   
