 Entering Gaussian System, Link 0=g16
 Initial command:
 /global/hds/software/cpu/non-eb/Gaussian/g16_C.01/l1.exe "/global/work/marcof/2227297/tsMetathesis_C/Gau-57301.inp" -scrdir="/global/work/marcof/2227297/tsMetathesis_C/"
 Entering Link 1 = /global/hds/software/cpu/non-eb/Gaussian/g16_C.01/l1.exe PID=     57302.
  
 Copyright (c) 1988-2019, Gaussian, Inc.  All Rights Reserved.
  
 This is part of the Gaussian(R) 16 program.  It is based on
 the Gaussian(R) 09 system (copyright 2009, Gaussian, Inc.),
 the Gaussian(R) 03 system (copyright 2003, Gaussian, Inc.),
 the Gaussian(R) 98 system (copyright 1998, Gaussian, Inc.),
 the Gaussian(R) 94 system (copyright 1995, Gaussian, Inc.),
 the Gaussian 92(TM) system (copyright 1992, Gaussian, Inc.),
 the Gaussian 90(TM) system (copyright 1990, Gaussian, Inc.),
 the Gaussian 88(TM) system (copyright 1988, Gaussian, Inc.),
 the Gaussian 86(TM) system (copyright 1986, Carnegie Mellon
 University), and the Gaussian 82(TM) system (copyright 1983,
 Carnegie Mellon University). Gaussian is a federally registered
 trademark of Gaussian, Inc.
  
 This software contains proprietary and confidential information,
 including trade secrets, belonging to Gaussian, Inc.
  
 This software is provided under written license and may be
 used, copied, transmitted, or stored only in accord with that
 written license.
  
 The following legend is applicable only to US Government
 contracts under FAR:
  
                    RESTRICTED RIGHTS LEGEND
  
 Use, reproduction and disclosure by the US Government is
 subject to restrictions as set forth in subparagraphs (a)
 and (c) of the Commercial Computer Software - Restricted
 Rights clause in FAR 52.227-19.
  
 Gaussian, Inc.
 340 Quinnipiac St., Bldg. 40, Wallingford CT 06492
  
  
 ---------------------------------------------------------------
 Warning -- This program may not be used in any manner that
 competes with the business of Gaussian, Inc. or will provide
 assistance to any competitor of Gaussian, Inc.  The licensee
 of this program is prohibited from giving any competitor of
 Gaussian, Inc. access to this program.  By using this program,
 the user acknowledges that Gaussian, Inc. is engaged in the
 business of creating and licensing software in the field of
 computational chemistry and represents and warrants to the
 licensee that it is not a competitor of Gaussian, Inc. and that
 it will not use this program in any manner prohibited above.
 ---------------------------------------------------------------
  

 Cite this work as:
 Gaussian 16, Revision C.01,
 M. J. Frisch, G. W. Trucks, H. B. Schlegel, G. E. Scuseria, 
 M. A. Robb, J. R. Cheeseman, G. Scalmani, V. Barone, 
 G. A. Petersson, H. Nakatsuji, X. Li, M. Caricato, A. V. Marenich, 
 J. Bloino, B. G. Janesko, R. Gomperts, B. Mennucci, H. P. Hratchian, 
 J. V. Ortiz, A. F. Izmaylov, J. L. Sonnenberg, D. Williams-Young, 
 F. Ding, F. Lipparini, F. Egidi, J. Goings, B. Peng, A. Petrone, 
 T. Henderson, D. Ranasinghe, V. G. Zakrzewski, J. Gao, N. Rega, 
 G. Zheng, W. Liang, M. Hada, M. Ehara, K. Toyota, R. Fukuda, 
 J. Hasegawa, M. Ishida, T. Nakajima, Y. Honda, O. Kitao, H. Nakai, 
 T. Vreven, K. Throssell, J. A. Montgomery, Jr., J. E. Peralta, 
 F. Ogliaro, M. J. Bearpark, J. J. Heyd, E. N. Brothers, K. N. Kudin, 
 V. N. Staroverov, T. A. Keith, R. Kobayashi, J. Normand, 
 K. Raghavachari, A. P. Rendell, J. C. Burant, S. S. Iyengar, 
 J. Tomasi, M. Cossi, J. M. Millam, M. Klene, C. Adamo, R. Cammi, 
 J. W. Ochterski, R. L. Martin, K. Morokuma, O. Farkas, 
 J. B. Foresman, and D. J. Fox, Gaussian, Inc., Wallingford CT, 2019.
 
 ******************************************
 Gaussian 16:  ES64L-G16RevC.01  3-Jul-2019
                12-Apr-2020 
 ******************************************
 %MEM=15000MB
 %NPROCSHARED=16
 Will use up to   16 processors via shared memory.
 %LINDAWORKERS=cib28-2,cib28-3,cib29-2,cib29-3
 %CHK=tsMetathesis_C
 SetLPE:    new flags="-opt 'Tsnet.Node.lindarsharg: ssh'  -nodelist 'cib28-2.ibnet cib28-3.ibnet cib29-2.ibnet cib29-3.ibnet' -env GAUSS_MDEF=1966080000 -env GAUSS_EXEDIR="/global/hds/software/cpu/non-eb/Gaussian/g16_C.01""
 Will use up to    4 processors via Linda.
 ----------------------------------------------------------------------
 #P # PBEPBE/CHKBASIS # GEOM=CHECK # GUESS=READ # NOSYMM # INT=ULTRAFIN
 E # EMPIRICALDISPERSION=GD3BJ # IOP(3/174=1000000,3/175=358940,3/177=1
 2092,3/178=5938951) # IOP(1/8=2) # SCRF=(PCM,SOLVENT=WATER,READ) # SCF
 =(VSHIFT=300,NOSYM,MAXCYCLE=250) # CPHF=(GRID=FINEGRID) # OPT=(CALCFC,
 MAXCYCLES=150,TS,NOLINEAR,NOEIGENTEST,TIGHT,MAXCYCLE=25)
 ----------------------------------------------------------------------
 1/5=1,6=25,7=10,8=2,10=4,11=1,18=20,19=1,26=6,29=2,38=1,40=2/1,3;
 2/9=110,12=2,15=1,40=1/2;
 3/5=7,6=2,11=2,14=-4,25=1,30=1,67=1,70=2203,71=2,72=1,74=1009,75=-5,116=-2,124=41,140=1,174=1000000,175=358940,177=12092,178=5938951/1,2,3;
 4/5=1,9=2/1;
 5/5=2,7=250,10=300,38=6,53=1/2;
 8/6=4,10=90,11=11/1;
 11/6=1,8=1,9=11,15=111,16=1,31=1/1,2,10;
 10/6=1,13=1,31=1,60=4/2;
 6/7=2,8=2,9=2,10=2,28=1/1;
 7/10=1,25=1,30=1/1,2,3,16;
 1/5=1,6=25,7=10,8=2,10=4,11=1,18=20,19=1,26=6/3(2);
 2/9=110,15=1/2;
 99//99;
 2/9=110,15=1/2;
 3/5=7,6=1,11=2,14=-2,25=1,30=1,70=2205,71=1,72=1,74=1009,75=-5,82=7,124=41,174=1000000,175=358940,177=12092,178=5938951/1,2,3;
 4/5=5,9=2,16=3,69=1/1;
 5/5=2,7=250,10=300,38=5,53=1/2;
 7/30=1/1,2,3,16;
 1/5=1,6=25,7=10,8=2,11=1,18=20,19=1,26=6/3(-5);
 2/9=110,15=1/2;
 6/7=2,8=2,9=2,10=2,19=2,28=1/1;
 99/9=1/99;
 Leave Link    1 at Sun Apr 12 14:04:44 2020, MaxMem=  1966080000 cpu:               2.4 elap:               0.2
 (Enter /global/hds/software/cpu/non-eb/Gaussian/g16_C.01/l101.exe)
 ---------------------------------------------------------------
 IDXE0041=6 LOOP WITH CALCFC TO FIX ERROR E0040-OPTSTEPSEXCEEDED
 ---------------------------------------------------------------
 Structure from the checkpoint file:  "tsMetathesis_C.chk"
 Charge =  0 Multiplicity = 1
 Redundant internal coordinates found in file.  (old form).
 C,0,0.284732734,-0.8222601094,0.2839830788
 C,0,-0.327061227,0.2409100801,-0.4094794938
 C,0,-1.7306701101,0.2765011375,-0.4728576821
 C,0,-2.5284914771,-0.7240133913,0.1135697016
 C,0,-1.8763566444,-1.8014186954,0.752331082
 C,0,-0.4689872106,-1.8470402428,0.8790984516
 N,0,-2.6517154813,-2.8626434485,1.3190152465
 C,0,-3.333965842,-3.7823987651,0.5884500222
 N,0,-4.0917960119,-4.5270470989,1.4314350714
 C,0,-3.7922330632,-4.217592119,2.8512018699
 C,0,-3.090863223,-2.8603198631,2.7350749629
 Ru,0,-3.2041926559,-3.9927602799,-1.4035376373
 C,0,-2.8696939093,-3.913391456,-3.9106937899
 H,0,-1.7788637921,-3.8670206095,-4.1947906561
 C,0,-4.9065349626,-5.6336326527,1.0332277596
 C,0,-4.3038292979,-6.8567783085,0.6681405012
 C,0,-5.1443076929,-7.9136491292,0.2663643665
 C,0,-6.54385635,-7.7866436881,0.2570217222
 C,0,-7.1089538454,-6.5633964831,0.6692352736
 C,0,-6.3126049034,-5.4758288863,1.0611538751
 C,0,-7.4261260495,-8.9289977953,-0.173598842
 C,0,-2.8115842613,-7.0410630022,0.7334286392
 C,0,-6.9261035395,-4.1712088263,1.4857415069
 C,0,0.5078780912,1.3191335335,-1.0497356809
 C,0,0.1960208975,-2.9628336441,1.6344216709
 C,0,-4.0290582646,-0.6344719716,0.0700660849
 Cl,0,-0.8585050865,-4.6961248641,-1.2029699597
 C,0,-3.2329137914,-5.2287106325,-3.3481686832
 C,0,-4.5298698413,-5.9024993913,-3.6904030692
 C,0,-2.627020342,-2.5912314416,-2.5271029055
 Cl,0,-5.5453070494,-3.346603668,-1.6869205217
 H,0,-8.1893985053,-9.1630171562,0.5997270638
 H,0,-2.3740113828,-5.9099258114,-3.1646771097
 H,0,-3.7951545659,-1.9883088778,2.9039039301
 H,0,-2.2000840577,-2.7602221889,3.4198198437
 H,0,-3.1159911394,-5.0249773745,3.2685685824
 H,0,-4.7440720396,-4.1777492079,3.4552112791
 H,0,-8.2073318977,-6.4489612762,0.6815160638
 H,0,-4.6857779574,-8.8753675371,-0.0237900569
 H,0,-2.2279573666,1.1205934619,-0.9823797512
 H,0,1.3854217741,-0.8552687657,0.3677326846
 H,0,1.1396789365,0.9051672238,-1.8663708958
 H,0,-4.3480582626,0.3699494937,-0.2737396204
 H,0,-6.8377453918,-9.847823374,-0.3692691184
 H,0,-7.9835747646,-8.6762394227,-1.1024756619
 H,0,-4.4721334696,-0.814709555,1.0726922508
 H,0,-4.4727053408,-1.3921468015,-0.6081460827
 H,0,1.2030042875,1.7816869737,-0.3159576635
 H,0,1.2993194612,-2.8841777172,1.5650548625
 H,0,-0.1167757656,-3.9455373575,1.2278681867
 H,0,-0.0813032487,-2.9424956494,2.7110537466
 H,0,-0.12347988,2.1214463027,-1.4815343999
 H,0,-2.54629756,-8.1123485042,0.6330431137
 H,0,-2.4029196194,-6.6666756289,1.6960452726
 H,0,-2.2844218291,-6.4761844274,-0.0640835095
 H,0,-8.0292322272,-4.2022429741,1.3844912477
 H,0,-6.5348341431,-3.3423987201,0.8602882602
 H,0,-6.6851334359,-3.9309896251,2.5440236167
 H,0,-1.5492958646,-2.3181993057,-2.5920830095
 C,0,-3.8506128245,-3.2553930805,-4.8548492296
 H,0,-3.339454939,-1.7915117254,-2.8370263449
 H,0,-5.3896036932,-5.2077697673,-3.683222145
 H,0,-4.7401627376,-6.7351046983,-2.9866755223
 H,0,-4.4536950728,-6.3527008723,-4.7101268296
 H,0,-3.4619768468,-2.2881813157,-5.2281588594
 H,0,-4.0258789732,-3.9192959518,-5.7292915938
 H,0,-4.8254155729,-3.08008319,-4.3578846019
 Recover connectivity data from disk.
 ITRead=  0  0  0  0  0  0  0  0  0  0  0  0  0  0  0  0  0  0  0  0
 ITRead=  0  0  0  0  0  0  0  0  0  0  0  0  0  0  0  0  0  0  0  0
 ITRead=  0  0  0  0  0  0  0  0  0  0  0  0  0  0  0  0  0  0  0  0
 ITRead=  0  0  0  0  0  0  0
 MicOpt= -1 -1 -1 -1 -1 -1 -1 -1 -1 -1 -1 -1 -1 -1 -1 -1 -1 -1 -1 -1
 MicOpt= -1 -1 -1 -1 -1 -1 -1 -1 -1 -1 -1 -1 -1 -1 -1 -1 -1 -1 -1 -1
 MicOpt= -1 -1 -1 -1 -1 -1 -1 -1 -1 -1 -1 -1 -1 -1 -1 -1 -1 -1 -1 -1
 MicOpt= -1 -1 -1 -1 -1 -1 -1
 NAtoms=     67 NQM=       67 NQMF=       0 NMMI=      0 NMMIF=      0
                NMic=       0 NMicF=      0.
                    Isotopes and Nuclear Properties:
 (Nuclear quadrupole moments (NQMom) in fm**2, nuclear magnetic moments (NMagM)
  in nuclear magnetons)

  Atom         1           2           3           4           5           6           7           8           9          10
 IAtWgt=          12          12          12          12          12          12          14          12          14          12
 AtmWgt=  12.0000000  12.0000000  12.0000000  12.0000000  12.0000000  12.0000000  14.0030740  12.0000000  14.0030740  12.0000000
 NucSpn=           0           0           0           0           0           0           2           0           2           0
 AtZEff=   3.6000000   3.6000000   3.6000000   3.6000000   3.6000000   3.6000000   4.5500000   3.6000000   4.5500000   3.6000000
 NQMom=    0.0000000   0.0000000   0.0000000   0.0000000   0.0000000   0.0000000   2.0440000   0.0000000   2.0440000   0.0000000
 NMagM=    0.0000000   0.0000000   0.0000000   0.0000000   0.0000000   0.0000000   0.4037610   0.0000000   0.4037610   0.0000000
 AtZNuc=   6.0000000   6.0000000   6.0000000   6.0000000   6.0000000   6.0000000   7.0000000   6.0000000   7.0000000   6.0000000

  Atom        11          12          13          14          15          16          17          18          19          20
 IAtWgt=          12         102          12           1          12          12          12          12          12          12
 AtmWgt=  12.0000000 101.9037000  12.0000000   1.0078250  12.0000000  12.0000000  12.0000000  12.0000000  12.0000000  12.0000000
 NucSpn=           0           0           0           1           0           0           0           0           0           0
 AtZEff=   3.6000000 221.7600000   3.6000000   1.0000000   3.6000000   3.6000000   3.6000000   3.6000000   3.6000000   3.6000000
 NQMom=    0.0000000   0.0000000   0.0000000   0.0000000   0.0000000   0.0000000   0.0000000   0.0000000   0.0000000   0.0000000
 NMagM=    0.0000000   0.0000000   0.0000000   2.7928460   0.0000000   0.0000000   0.0000000   0.0000000   0.0000000   0.0000000
 AtZNuc=   6.0000000  44.0000000   6.0000000   1.0000000   6.0000000   6.0000000   6.0000000   6.0000000   6.0000000   6.0000000

  Atom        21          22          23          24          25          26          27          28          29          30
 IAtWgt=          12          12          12          12          12          12          35          12          12          12
 AtmWgt=  12.0000000  12.0000000  12.0000000  12.0000000  12.0000000  12.0000000  34.9688527  12.0000000  12.0000000  12.0000000
 NucSpn=           0           0           0           0           0           0           3           0           0           0
 AtZEff=   3.6000000   3.6000000   3.6000000   3.6000000   3.6000000   3.6000000  14.2400000   3.6000000   3.6000000   3.6000000
 NQMom=    0.0000000   0.0000000   0.0000000   0.0000000   0.0000000   0.0000000  -8.1650000   0.0000000   0.0000000   0.0000000
 NMagM=    0.0000000   0.0000000   0.0000000   0.0000000   0.0000000   0.0000000   0.8218740   0.0000000   0.0000000   0.0000000
 AtZNuc=   6.0000000   6.0000000   6.0000000   6.0000000   6.0000000   6.0000000  17.0000000   6.0000000   6.0000000   6.0000000

  Atom        31          32          33          34          35          36          37          38          39          40
 IAtWgt=          35           1           1           1           1           1           1           1           1           1
 AtmWgt=  34.9688527   1.0078250   1.0078250   1.0078250   1.0078250   1.0078250   1.0078250   1.0078250   1.0078250   1.0078250
 NucSpn=           3           1           1           1           1           1           1           1           1           1
 AtZEff=  14.2400000   1.0000000   1.0000000   1.0000000   1.0000000   1.0000000   1.0000000   1.0000000   1.0000000   1.0000000
 NQMom=   -8.1650000   0.0000000   0.0000000   0.0000000   0.0000000   0.0000000   0.0000000   0.0000000   0.0000000   0.0000000
 NMagM=    0.8218740   2.7928460   2.7928460   2.7928460   2.7928460   2.7928460   2.7928460   2.7928460   2.7928460   2.7928460
 AtZNuc=  17.0000000   1.0000000   1.0000000   1.0000000   1.0000000   1.0000000   1.0000000   1.0000000   1.0000000   1.0000000

  Atom        41          42          43          44          45          46          47          48          49          50
 IAtWgt=           1           1           1           1           1           1           1           1           1           1
 AtmWgt=   1.0078250   1.0078250   1.0078250   1.0078250   1.0078250   1.0078250   1.0078250   1.0078250   1.0078250   1.0078250
 NucSpn=           1           1           1           1           1           1           1           1           1           1
 AtZEff=   1.0000000   1.0000000   1.0000000   1.0000000   1.0000000   1.0000000   1.0000000   1.0000000   1.0000000   1.0000000
 NQMom=    0.0000000   0.0000000   0.0000000   0.0000000   0.0000000   0.0000000   0.0000000   0.0000000   0.0000000   0.0000000
 NMagM=    2.7928460   2.7928460   2.7928460   2.7928460   2.7928460   2.7928460   2.7928460   2.7928460   2.7928460   2.7928460
 AtZNuc=   1.0000000   1.0000000   1.0000000   1.0000000   1.0000000   1.0000000   1.0000000   1.0000000   1.0000000   1.0000000

  Atom        51          52          53          54          55          56          57          58          59          60
 IAtWgt=           1           1           1           1           1           1           1           1           1          12
 AtmWgt=   1.0078250   1.0078250   1.0078250   1.0078250   1.0078250   1.0078250   1.0078250   1.0078250   1.0078250  12.0000000
 NucSpn=           1           1           1           1           1           1           1           1           1           0
 AtZEff=   1.0000000   1.0000000   1.0000000   1.0000000   1.0000000   1.0000000   1.0000000   1.0000000   1.0000000   3.6000000
 NQMom=    0.0000000   0.0000000   0.0000000   0.0000000   0.0000000   0.0000000   0.0000000   0.0000000   0.0000000   0.0000000
 NMagM=    2.7928460   2.7928460   2.7928460   2.7928460   2.7928460   2.7928460   2.7928460   2.7928460   2.7928460   0.0000000
 AtZNuc=   1.0000000   1.0000000   1.0000000   1.0000000   1.0000000   1.0000000   1.0000000   1.0000000   1.0000000   6.0000000

  Atom        61          62          63          64          65          66          67
 IAtWgt=           1           1           1           1           1           1           1
 AtmWgt=   1.0078250   1.0078250   1.0078250   1.0078250   1.0078250   1.0078250   1.0078250
 NucSpn=           1           1           1           1           1           1           1
 AtZEff=   1.0000000   1.0000000   1.0000000   1.0000000   1.0000000   1.0000000   1.0000000
 NQMom=    0.0000000   0.0000000   0.0000000   0.0000000   0.0000000   0.0000000   0.0000000
 NMagM=    2.7928460   2.7928460   2.7928460   2.7928460   2.7928460   2.7928460   2.7928460
 AtZNuc=   1.0000000   1.0000000   1.0000000   1.0000000   1.0000000   1.0000000   1.0000000
 Leave Link  101 at Sun Apr 12 14:04:44 2020, MaxMem=  1966080000 cpu:               5.6 elap:               0.4
 (Enter /global/hds/software/cpu/non-eb/Gaussian/g16_C.01/l103.exe)

 GradGradGradGradGradGradGradGradGradGradGradGradGradGradGradGradGradGrad
 Berny optimization.
 Initialization pass.
                           ----------------------------
                           !    Initial Parameters    !
                           ! (Angstroms and Degrees)  !
 --------------------------                            --------------------------
 ! Name  Definition              Value          Derivative Info.                !
 --------------------------------------------------------------------------------
 ! R1    R(1,2)                  1.4091         calculate D2E/DX2 analytically  !
 ! R2    R(1,6)                  1.4044         calculate D2E/DX2 analytically  !
 ! R3    R(1,41)                 1.1044         calculate D2E/DX2 analytically  !
 ! R4    R(2,3)                  1.4055         calculate D2E/DX2 analytically  !
 ! R5    R(2,24)                 1.5065         calculate D2E/DX2 analytically  !
 ! R6    R(3,4)                  1.4076         calculate D2E/DX2 analytically  !
 ! R7    R(3,40)                 1.1043         calculate D2E/DX2 analytically  !
 ! R8    R(4,5)                  1.4121         calculate D2E/DX2 analytically  !
 ! R9    R(4,26)                 1.5039         calculate D2E/DX2 analytically  !
 ! R10   R(5,6)                  1.4138         calculate D2E/DX2 analytically  !
 ! R11   R(5,7)                  1.4313         calculate D2E/DX2 analytically  !
 ! R12   R(6,25)                 1.5026         calculate D2E/DX2 analytically  !
 ! R13   R(7,8)                  1.3584         calculate D2E/DX2 analytically  !
 ! R14   R(7,11)                 1.4826         calculate D2E/DX2 analytically  !
 ! R15   R(8,9)                  1.3563         calculate D2E/DX2 analytically  !
 ! R16   R(8,12)                 2.0073         calculate D2E/DX2 analytically  !
 ! R17   R(9,10)                 1.4837         calculate D2E/DX2 analytically  !
 ! R18   R(9,15)                 1.4307         calculate D2E/DX2 analytically  !
 ! R19   R(10,11)                1.5322         calculate D2E/DX2 analytically  !
 ! R20   R(10,36)                1.1329         calculate D2E/DX2 analytically  !
 ! R21   R(10,37)                1.128          calculate D2E/DX2 analytically  !
 ! R22   R(11,34)                1.1335         calculate D2E/DX2 analytically  !
 ! R23   R(11,35)                1.128          calculate D2E/DX2 analytically  !
 ! R24   R(12,27)                2.4571         calculate D2E/DX2 analytically  !
 ! R25   R(12,28)                2.3043         calculate D2E/DX2 analytically  !
 ! R26   R(12,30)                1.8867         calculate D2E/DX2 analytically  !
 ! R27   R(12,31)                2.4451         calculate D2E/DX2 analytically  !
 ! R28   R(13,14)                1.1282         calculate D2E/DX2 analytically  !
 ! R29   R(13,28)                1.4759         calculate D2E/DX2 analytically  !
 ! R30   R(13,60)                1.5121         calculate D2E/DX2 analytically  !
 ! R31   R(15,16)                1.4116         calculate D2E/DX2 analytically  !
 ! R32   R(15,20)                1.4152         calculate D2E/DX2 analytically  !
 ! R33   R(16,17)                1.4088         calculate D2E/DX2 analytically  !
 ! R34   R(16,22)                1.505          calculate D2E/DX2 analytically  !
 ! R35   R(17,18)                1.4053         calculate D2E/DX2 analytically  !
 ! R36   R(17,39)                1.1042         calculate D2E/DX2 analytically  !
 ! R37   R(18,19)                1.4091         calculate D2E/DX2 analytically  !
 ! R38   R(18,21)                1.5063         calculate D2E/DX2 analytically  !
 ! R39   R(19,20)                1.4038         calculate D2E/DX2 analytically  !
 ! R40   R(19,38)                1.1044         calculate D2E/DX2 analytically  !
 ! R41   R(20,23)                1.5029         calculate D2E/DX2 analytically  !
 ! R42   R(21,32)                1.1115         calculate D2E/DX2 analytically  !
 ! R43   R(21,44)                1.1085         calculate D2E/DX2 analytically  !
 ! R44   R(21,45)                1.1124         calculate D2E/DX2 analytically  !
 ! R45   R(22,53)                1.1082         calculate D2E/DX2 analytically  !
 ! R46   R(22,54)                1.1108         calculate D2E/DX2 analytically  !
 ! R47   R(22,55)                1.1104         calculate D2E/DX2 analytically  !
 ! R48   R(23,56)                1.1082         calculate D2E/DX2 analytically  !
 ! R49   R(23,57)                1.1096         calculate D2E/DX2 analytically  !
 ! R50   R(23,58)                1.1116         calculate D2E/DX2 analytically  !
 ! R51   R(24,42)                1.1124         calculate D2E/DX2 analytically  !
 ! R52   R(24,48)                1.1116         calculate D2E/DX2 analytically  !
 ! R53   R(24,52)                1.1085         calculate D2E/DX2 analytically  !
 ! R54   R(25,49)                1.1083         calculate D2E/DX2 analytically  !
 ! R55   R(25,50)                1.1085         calculate D2E/DX2 analytically  !
 ! R56   R(25,51)                1.112          calculate D2E/DX2 analytically  !
 ! R57   R(26,43)                1.1085         calculate D2E/DX2 analytically  !
 ! R58   R(26,46)                1.1109         calculate D2E/DX2 analytically  !
 ! R59   R(26,47)                1.1094         calculate D2E/DX2 analytically  !
 ! R60   R(28,29)                1.5011         calculate D2E/DX2 analytically  !
 ! R61   R(28,33)                1.1115         calculate D2E/DX2 analytically  !
 ! R62   R(29,62)                1.1054         calculate D2E/DX2 analytically  !
 ! R63   R(29,63)                1.1103         calculate D2E/DX2 analytically  !
 ! R64   R(29,64)                1.1173         calculate D2E/DX2 analytically  !
 ! R65   R(30,59)                1.1137         calculate D2E/DX2 analytically  !
 ! R66   R(30,61)                1.115          calculate D2E/DX2 analytically  !
 ! R67   R(60,65)                1.1072         calculate D2E/DX2 analytically  !
 ! R68   R(60,66)                1.1118         calculate D2E/DX2 analytically  !
 ! R69   R(60,67)                1.1081         calculate D2E/DX2 analytically  !
 ! A1    A(2,1,6)              121.7407         calculate D2E/DX2 analytically  !
 ! A2    A(2,1,41)             119.5121         calculate D2E/DX2 analytically  !
 ! A3    A(6,1,41)             118.747          calculate D2E/DX2 analytically  !
 ! A4    A(1,2,3)              118.3526         calculate D2E/DX2 analytically  !
 ! A5    A(1,2,24)             120.566          calculate D2E/DX2 analytically  !
 ! A6    A(3,2,24)             121.0768         calculate D2E/DX2 analytically  !
 ! A7    A(2,3,4)              121.9539         calculate D2E/DX2 analytically  !
 ! A8    A(2,3,40)             119.3336         calculate D2E/DX2 analytically  !
 ! A9    A(4,3,40)             118.7049         calculate D2E/DX2 analytically  !
 ! A10   A(3,4,5)              117.9694         calculate D2E/DX2 analytically  !
 ! A11   A(3,4,26)             120.7415         calculate D2E/DX2 analytically  !
 ! A12   A(5,4,26)             121.286          calculate D2E/DX2 analytically  !
 ! A13   A(4,5,6)              121.6607         calculate D2E/DX2 analytically  !
 ! A14   A(4,5,7)              119.6453         calculate D2E/DX2 analytically  !
 ! A15   A(6,5,7)              118.6749         calculate D2E/DX2 analytically  !
 ! A16   A(1,6,5)              118.2091         calculate D2E/DX2 analytically  !
 ! A17   A(1,6,25)             121.1537         calculate D2E/DX2 analytically  !
 ! A18   A(5,6,25)             120.6371         calculate D2E/DX2 analytically  !
 ! A19   A(5,7,8)              124.1384         calculate D2E/DX2 analytically  !
 ! A20   A(5,7,11)             122.5113         calculate D2E/DX2 analytically  !
 ! A21   A(8,7,11)             111.4681         calculate D2E/DX2 analytically  !
 ! A22   A(7,8,9)              108.5493         calculate D2E/DX2 analytically  !
 ! A23   A(7,8,12)             124.9055         calculate D2E/DX2 analytically  !
 ! A24   A(9,8,12)             126.5417         calculate D2E/DX2 analytically  !
 ! A25   A(8,9,10)             111.5584         calculate D2E/DX2 analytically  !
 ! A26   A(8,9,15)             124.741          calculate D2E/DX2 analytically  !
 ! A27   A(10,9,15)            122.8642         calculate D2E/DX2 analytically  !
 ! A28   A(9,10,11)            101.8097         calculate D2E/DX2 analytically  !
 ! A29   A(9,10,36)            108.931          calculate D2E/DX2 analytically  !
 ! A30   A(9,10,37)            110.4505         calculate D2E/DX2 analytically  !
 ! A31   A(11,10,36)           112.7063         calculate D2E/DX2 analytically  !
 ! A32   A(11,10,37)           113.3009         calculate D2E/DX2 analytically  !
 ! A33   A(36,10,37)           109.3661         calculate D2E/DX2 analytically  !
 ! A34   A(7,11,10)            101.9227         calculate D2E/DX2 analytically  !
 ! A35   A(7,11,34)            109.1168         calculate D2E/DX2 analytically  !
 ! A36   A(7,11,35)            110.2447         calculate D2E/DX2 analytically  !
 ! A37   A(10,11,34)           112.6906         calculate D2E/DX2 analytically  !
 ! A38   A(10,11,35)           113.2093         calculate D2E/DX2 analytically  !
 ! A39   A(34,11,35)           109.3887         calculate D2E/DX2 analytically  !
 ! A40   A(8,12,27)             90.6139         calculate D2E/DX2 analytically  !
 ! A41   A(8,12,28)            153.2375         calculate D2E/DX2 analytically  !
 ! A42   A(8,12,30)            122.2017         calculate D2E/DX2 analytically  !
 ! A43   A(8,12,31)             91.4565         calculate D2E/DX2 analytically  !
 ! A44   A(27,12,28)            85.8279         calculate D2E/DX2 analytically  !
 ! A45   A(27,12,30)            88.2357         calculate D2E/DX2 analytically  !
 ! A46   A(28,12,30)            84.2429         calculate D2E/DX2 analytically  !
 ! A47   A(28,12,31)            91.8338         calculate D2E/DX2 analytically  !
 ! A48   A(30,12,31)            91.5802         calculate D2E/DX2 analytically  !
 ! A49   A(14,13,28)           111.7497         calculate D2E/DX2 analytically  !
 ! A50   A(14,13,60)           116.8787         calculate D2E/DX2 analytically  !
 ! A51   A(28,13,60)           117.7824         calculate D2E/DX2 analytically  !
 ! A52   A(9,15,16)            119.9364         calculate D2E/DX2 analytically  !
 ! A53   A(9,15,20)            118.2986         calculate D2E/DX2 analytically  !
 ! A54   A(16,15,20)           121.7318         calculate D2E/DX2 analytically  !
 ! A55   A(15,16,17)           117.9734         calculate D2E/DX2 analytically  !
 ! A56   A(15,16,22)           121.2135         calculate D2E/DX2 analytically  !
 ! A57   A(17,16,22)           120.7996         calculate D2E/DX2 analytically  !
 ! A58   A(16,17,18)           121.8855         calculate D2E/DX2 analytically  !
 ! A59   A(16,17,39)           118.7222         calculate D2E/DX2 analytically  !
 ! A60   A(18,17,39)           119.3734         calculate D2E/DX2 analytically  !
 ! A61   A(17,18,19)           118.4174         calculate D2E/DX2 analytically  !
 ! A62   A(17,18,21)           121.1103         calculate D2E/DX2 analytically  !
 ! A63   A(19,18,21)           120.4712         calculate D2E/DX2 analytically  !
 ! A64   A(18,19,20)           121.7846         calculate D2E/DX2 analytically  !
 ! A65   A(18,19,38)           119.4755         calculate D2E/DX2 analytically  !
 ! A66   A(20,19,38)           118.739          calculate D2E/DX2 analytically  !
 ! A67   A(15,20,19)           118.1475         calculate D2E/DX2 analytically  !
 ! A68   A(15,20,23)           120.5279         calculate D2E/DX2 analytically  !
 ! A69   A(19,20,23)           121.3212         calculate D2E/DX2 analytically  !
 ! A70   A(18,21,32)           111.285          calculate D2E/DX2 analytically  !
 ! A71   A(18,21,44)           111.605          calculate D2E/DX2 analytically  !
 ! A72   A(18,21,45)           111.0954         calculate D2E/DX2 analytically  !
 ! A73   A(32,21,44)           108.2283         calculate D2E/DX2 analytically  !
 ! A74   A(32,21,45)           106.5401         calculate D2E/DX2 analytically  !
 ! A75   A(44,21,45)           107.8749         calculate D2E/DX2 analytically  !
 ! A76   A(16,22,53)           110.5973         calculate D2E/DX2 analytically  !
 ! A77   A(16,22,54)           111.1689         calculate D2E/DX2 analytically  !
 ! A78   A(16,22,55)           112.165          calculate D2E/DX2 analytically  !
 ! A79   A(53,22,54)           108.4366         calculate D2E/DX2 analytically  !
 ! A80   A(53,22,55)           108.2437         calculate D2E/DX2 analytically  !
 ! A81   A(54,22,55)           106.0391         calculate D2E/DX2 analytically  !
 ! A82   A(20,23,56)           110.8684         calculate D2E/DX2 analytically  !
 ! A83   A(20,23,57)           110.1948         calculate D2E/DX2 analytically  !
 ! A84   A(20,23,58)           111.5955         calculate D2E/DX2 analytically  !
 ! A85   A(56,23,57)           108.6887         calculate D2E/DX2 analytically  !
 ! A86   A(56,23,58)           107.9875         calculate D2E/DX2 analytically  !
 ! A87   A(57,23,58)           107.3838         calculate D2E/DX2 analytically  !
 ! A88   A(2,24,42)            111.1264         calculate D2E/DX2 analytically  !
 ! A89   A(2,24,48)            111.3373         calculate D2E/DX2 analytically  !
 ! A90   A(2,24,52)            111.5863         calculate D2E/DX2 analytically  !
 ! A91   A(42,24,48)           106.5165         calculate D2E/DX2 analytically  !
 ! A92   A(42,24,52)           107.8708         calculate D2E/DX2 analytically  !
 ! A93   A(48,24,52)           108.188          calculate D2E/DX2 analytically  !
 ! A94   A(6,25,49)            110.8809         calculate D2E/DX2 analytically  !
 ! A95   A(6,25,50)            110.4295         calculate D2E/DX2 analytically  !
 ! A96   A(6,25,51)            111.2693         calculate D2E/DX2 analytically  !
 ! A97   A(49,25,50)           108.7154         calculate D2E/DX2 analytically  !
 ! A98   A(49,25,51)           107.9138         calculate D2E/DX2 analytically  !
 ! A99   A(50,25,51)           107.514          calculate D2E/DX2 analytically  !
 ! A100  A(4,26,43)            110.491          calculate D2E/DX2 analytically  !
 ! A101  A(4,26,46)            111.2357         calculate D2E/DX2 analytically  !
 ! A102  A(4,26,47)            112.0878         calculate D2E/DX2 analytically  !
 ! A103  A(43,26,46)           108.1892         calculate D2E/DX2 analytically  !
 ! A104  A(43,26,47)           108.3081         calculate D2E/DX2 analytically  !
 ! A105  A(46,26,47)           106.3461         calculate D2E/DX2 analytically  !
 ! A106  A(12,28,13)            80.8268         calculate D2E/DX2 analytically  !
 ! A107  A(12,28,29)           116.3548         calculate D2E/DX2 analytically  !
 ! A108  A(12,28,33)           100.3567         calculate D2E/DX2 analytically  !
 ! A109  A(13,28,29)           121.7191         calculate D2E/DX2 analytically  !
 ! A110  A(13,28,33)           114.7671         calculate D2E/DX2 analytically  !
 ! A111  A(29,28,33)           115.4801         calculate D2E/DX2 analytically  !
 ! A112  A(28,29,62)           112.8561         calculate D2E/DX2 analytically  !
 ! A113  A(28,29,63)           110.8399         calculate D2E/DX2 analytically  !
 ! A114  A(28,29,64)           109.2717         calculate D2E/DX2 analytically  !
 ! A115  A(62,29,63)           108.6563         calculate D2E/DX2 analytically  !
 ! A116  A(62,29,64)           108.1924         calculate D2E/DX2 analytically  !
 ! A117  A(63,29,64)           106.812          calculate D2E/DX2 analytically  !
 ! A118  A(12,30,59)           120.857          calculate D2E/DX2 analytically  !
 ! A119  A(12,30,61)           120.1894         calculate D2E/DX2 analytically  !
 ! A120  A(59,30,61)           115.2319         calculate D2E/DX2 analytically  !
 ! A121  A(13,60,65)           111.2813         calculate D2E/DX2 analytically  !
 ! A122  A(13,60,66)           109.4811         calculate D2E/DX2 analytically  !
 ! A123  A(13,60,67)           111.0675         calculate D2E/DX2 analytically  !
 ! A124  A(65,60,66)           108.167          calculate D2E/DX2 analytically  !
 ! A125  A(65,60,67)           108.7708         calculate D2E/DX2 analytically  !
 ! A126  A(66,60,67)           107.97           calculate D2E/DX2 analytically  !
 ! A127  L(27,12,31,8,-1)      182.0704         calculate D2E/DX2 analytically  !
 ! A128  L(27,12,31,8,-2)      181.088          calculate D2E/DX2 analytically  !
 ! D1    D(6,1,2,3)              1.3882         calculate D2E/DX2 analytically  !
 ! D2    D(6,1,2,24)          -179.3855         calculate D2E/DX2 analytically  !
 ! D3    D(41,1,2,3)          -178.4501         calculate D2E/DX2 analytically  !
 ! D4    D(41,1,2,24)            0.7761         calculate D2E/DX2 analytically  !
 ! D5    D(2,1,6,5)              0.8449         calculate D2E/DX2 analytically  !
 ! D6    D(2,1,6,25)          -179.006          calculate D2E/DX2 analytically  !
 ! D7    D(41,1,6,5)          -179.3156         calculate D2E/DX2 analytically  !
 ! D8    D(41,1,6,25)            0.8336         calculate D2E/DX2 analytically  !
 ! D9    D(1,2,3,4)             -1.0638         calculate D2E/DX2 analytically  !
 ! D10   D(1,2,3,40)           177.9216         calculate D2E/DX2 analytically  !
 ! D11   D(24,2,3,4)           179.7141         calculate D2E/DX2 analytically  !
 ! D12   D(24,2,3,40)           -1.3005         calculate D2E/DX2 analytically  !
 ! D13   D(1,2,24,42)           64.2147         calculate D2E/DX2 analytically  !
 ! D14   D(1,2,24,48)          -54.3495         calculate D2E/DX2 analytically  !
 ! D15   D(1,2,24,52)         -175.3427         calculate D2E/DX2 analytically  !
 ! D16   D(3,2,24,42)         -116.5804         calculate D2E/DX2 analytically  !
 ! D17   D(3,2,24,48)          124.8554         calculate D2E/DX2 analytically  !
 ! D18   D(3,2,24,52)            3.8622         calculate D2E/DX2 analytically  !
 ! D19   D(2,3,4,5)             -1.4747         calculate D2E/DX2 analytically  !
 ! D20   D(2,3,4,26)           177.894          calculate D2E/DX2 analytically  !
 ! D21   D(40,3,4,5)           179.5338         calculate D2E/DX2 analytically  !
 ! D22   D(40,3,4,26)           -1.0976         calculate D2E/DX2 analytically  !
 ! D23   D(3,4,5,6)              3.82           calculate D2E/DX2 analytically  !
 ! D24   D(3,4,5,7)           -177.791          calculate D2E/DX2 analytically  !
 ! D25   D(26,4,5,6)          -175.545          calculate D2E/DX2 analytically  !
 ! D26   D(26,4,5,7)             2.8439         calculate D2E/DX2 analytically  !
 ! D27   D(3,4,26,43)          -11.4526         calculate D2E/DX2 analytically  !
 ! D28   D(3,4,26,46)         -131.6338         calculate D2E/DX2 analytically  !
 ! D29   D(3,4,26,47)          109.4486         calculate D2E/DX2 analytically  !
 ! D30   D(5,4,26,43)          167.8948         calculate D2E/DX2 analytically  !
 ! D31   D(5,4,26,46)           47.7136         calculate D2E/DX2 analytically  !
 ! D32   D(5,4,26,47)          -71.2039         calculate D2E/DX2 analytically  !
 ! D33   D(4,5,6,1)             -3.5198         calculate D2E/DX2 analytically  !
 ! D34   D(4,5,6,25)           176.3319         calculate D2E/DX2 analytically  !
 ! D35   D(7,5,6,1)            178.0761         calculate D2E/DX2 analytically  !
 ! D36   D(7,5,6,25)            -2.0722         calculate D2E/DX2 analytically  !
 ! D37   D(4,5,7,8)             70.8307         calculate D2E/DX2 analytically  !
 ! D38   D(4,5,7,11)           -92.2059         calculate D2E/DX2 analytically  !
 ! D39   D(6,5,7,8)           -110.7322         calculate D2E/DX2 analytically  !
 ! D40   D(6,5,7,11)            86.2312         calculate D2E/DX2 analytically  !
 ! D41   D(1,6,25,49)           -4.634          calculate D2E/DX2 analytically  !
 ! D42   D(1,6,25,50)         -125.2025         calculate D2E/DX2 analytically  !
 ! D43   D(1,6,25,51)          115.4829         calculate D2E/DX2 analytically  !
 ! D44   D(5,6,25,49)          175.5187         calculate D2E/DX2 analytically  !
 ! D45   D(5,6,25,50)           54.9502         calculate D2E/DX2 analytically  !
 ! D46   D(5,6,25,51)          -64.3644         calculate D2E/DX2 analytically  !
 ! D47   D(5,7,8,9)           -172.1665         calculate D2E/DX2 analytically  !
 ! D48   D(5,7,8,12)             8.4755         calculate D2E/DX2 analytically  !
 ! D49   D(11,7,8,9)            -7.4967         calculate D2E/DX2 analytically  !
 ! D50   D(11,7,8,12)          173.1454         calculate D2E/DX2 analytically  !
 ! D51   D(5,7,11,10)         -176.7546         calculate D2E/DX2 analytically  !
 ! D52   D(5,7,11,34)           63.8748         calculate D2E/DX2 analytically  !
 ! D53   D(5,7,11,35)          -56.2788         calculate D2E/DX2 analytically  !
 ! D54   D(8,7,11,10)           18.2852         calculate D2E/DX2 analytically  !
 ! D55   D(8,7,11,34)         -101.0854         calculate D2E/DX2 analytically  !
 ! D56   D(8,7,11,35)          138.761          calculate D2E/DX2 analytically  !
 ! D57   D(7,8,9,10)            -7.4919         calculate D2E/DX2 analytically  !
 ! D58   D(7,8,9,15)          -177.2393         calculate D2E/DX2 analytically  !
 ! D59   D(12,8,9,10)          171.8527         calculate D2E/DX2 analytically  !
 ! D60   D(12,8,9,15)            2.1053         calculate D2E/DX2 analytically  !
 ! D61   D(7,8,12,27)           65.8354         calculate D2E/DX2 analytically  !
 ! D62   D(7,8,12,28)          147.7683         calculate D2E/DX2 analytically  !
 ! D63   D(7,8,12,30)          -22.4662         calculate D2E/DX2 analytically  !
 ! D64   D(7,8,12,31)         -115.2526         calculate D2E/DX2 analytically  !
 ! D65   D(9,8,12,27)         -113.407          calculate D2E/DX2 analytically  !
 ! D66   D(9,8,12,28)          -31.4741         calculate D2E/DX2 analytically  !
 ! D67   D(9,8,12,30)          158.2915         calculate D2E/DX2 analytically  !
 ! D68   D(9,8,12,31)           65.505          calculate D2E/DX2 analytically  !
 ! D69   D(8,9,10,11)           18.2713         calculate D2E/DX2 analytically  !
 ! D70   D(8,9,10,36)         -100.9785         calculate D2E/DX2 analytically  !
 ! D71   D(8,9,10,37)          138.8862         calculate D2E/DX2 analytically  !
 ! D72   D(15,9,10,11)        -171.7565         calculate D2E/DX2 analytically  !
 ! D73   D(15,9,10,36)          68.9937         calculate D2E/DX2 analytically  !
 ! D74   D(15,9,10,37)         -51.1416         calculate D2E/DX2 analytically  !
 ! D75   D(8,9,15,16)           73.0194         calculate D2E/DX2 analytically  !
 ! D76   D(8,9,15,20)         -109.0419         calculate D2E/DX2 analytically  !
 ! D77   D(10,9,15,16)         -95.6146         calculate D2E/DX2 analytically  !
 ! D78   D(10,9,15,20)          82.3241         calculate D2E/DX2 analytically  !
 ! D79   D(9,10,11,7)          -20.5461         calculate D2E/DX2 analytically  !
 ! D80   D(9,10,11,34)          96.2668         calculate D2E/DX2 analytically  !
 ! D81   D(9,10,11,35)        -138.9275         calculate D2E/DX2 analytically  !
 ! D82   D(36,10,11,7)          95.9912         calculate D2E/DX2 analytically  !
 ! D83   D(36,10,11,34)       -147.1958         calculate D2E/DX2 analytically  !
 ! D84   D(36,10,11,35)        -22.3902         calculate D2E/DX2 analytically  !
 ! D85   D(37,10,11,7)        -139.1469         calculate D2E/DX2 analytically  !
 ! D86   D(37,10,11,34)        -22.3339         calculate D2E/DX2 analytically  !
 ! D87   D(37,10,11,35)        102.4717         calculate D2E/DX2 analytically  !
 ! D88   D(8,12,28,13)        -175.3723         calculate D2E/DX2 analytically  !
 ! D89   D(8,12,28,29)          63.6745         calculate D2E/DX2 analytically  !
 ! D90   D(8,12,28,33)         -61.6769         calculate D2E/DX2 analytically  !
 ! D91   D(27,12,28,13)        -92.3099         calculate D2E/DX2 analytically  !
 ! D92   D(27,12,28,29)        146.7369         calculate D2E/DX2 analytically  !
 ! D93   D(27,12,28,33)         21.3855         calculate D2E/DX2 analytically  !
 ! D94   D(30,12,28,13)         -3.6663         calculate D2E/DX2 analytically  !
 ! D95   D(30,12,28,29)       -124.6195         calculate D2E/DX2 analytically  !
 ! D96   D(30,12,28,33)        110.0291         calculate D2E/DX2 analytically  !
 ! D97   D(31,12,28,13)         87.7377         calculate D2E/DX2 analytically  !
 ! D98   D(31,12,28,29)        -33.2155         calculate D2E/DX2 analytically  !
 ! D99   D(31,12,28,33)       -158.5669         calculate D2E/DX2 analytically  !
 ! D100  D(8,12,30,59)          75.771          calculate D2E/DX2 analytically  !
 ! D101  D(8,12,30,61)         -81.4608         calculate D2E/DX2 analytically  !
 ! D102  D(27,12,30,59)        -13.8433         calculate D2E/DX2 analytically  !
 ! D103  D(27,12,30,61)       -171.0751         calculate D2E/DX2 analytically  !
 ! D104  D(28,12,30,59)        -99.8264         calculate D2E/DX2 analytically  !
 ! D105  D(28,12,30,61)        102.9418         calculate D2E/DX2 analytically  !
 ! D106  D(31,12,30,59)        168.4892         calculate D2E/DX2 analytically  !
 ! D107  D(31,12,30,61)         11.2574         calculate D2E/DX2 analytically  !
 ! D108  D(14,13,28,12)        105.0108         calculate D2E/DX2 analytically  !
 ! D109  D(14,13,28,29)       -139.5958         calculate D2E/DX2 analytically  !
 ! D110  D(14,13,28,33)          7.7695         calculate D2E/DX2 analytically  !
 ! D111  D(60,13,28,12)       -115.4929         calculate D2E/DX2 analytically  !
 ! D112  D(60,13,28,29)         -0.0995         calculate D2E/DX2 analytically  !
 ! D113  D(60,13,28,33)        147.2658         calculate D2E/DX2 analytically  !
 ! D114  D(14,13,60,65)        -41.3123         calculate D2E/DX2 analytically  !
 ! D115  D(14,13,60,66)         78.2066         calculate D2E/DX2 analytically  !
 ! D116  D(14,13,60,67)       -162.6521         calculate D2E/DX2 analytically  !
 ! D117  D(28,13,60,65)       -178.7549         calculate D2E/DX2 analytically  !
 ! D118  D(28,13,60,66)        -59.2361         calculate D2E/DX2 analytically  !
 ! D119  D(28,13,60,67)         59.9052         calculate D2E/DX2 analytically  !
 ! D120  D(9,15,16,17)        -179.197          calculate D2E/DX2 analytically  !
 ! D121  D(9,15,16,22)           2.1293         calculate D2E/DX2 analytically  !
 ! D122  D(20,15,16,17)          2.937          calculate D2E/DX2 analytically  !
 ! D123  D(20,15,16,22)       -175.7367         calculate D2E/DX2 analytically  !
 ! D124  D(9,15,20,19)         179.9721         calculate D2E/DX2 analytically  !
 ! D125  D(9,15,20,23)           0.629          calculate D2E/DX2 analytically  !
 ! D126  D(16,15,20,19)         -2.1282         calculate D2E/DX2 analytically  !
 ! D127  D(16,15,20,23)        178.5288         calculate D2E/DX2 analytically  !
 ! D128  D(15,16,17,18)         -1.7084         calculate D2E/DX2 analytically  !
 ! D129  D(15,16,17,39)        179.8808         calculate D2E/DX2 analytically  !
 ! D130  D(22,16,17,18)        176.971          calculate D2E/DX2 analytically  !
 ! D131  D(22,16,17,39)         -1.4397         calculate D2E/DX2 analytically  !
 ! D132  D(15,16,22,53)        167.2903         calculate D2E/DX2 analytically  !
 ! D133  D(15,16,22,54)         46.7705         calculate D2E/DX2 analytically  !
 ! D134  D(15,16,22,55)        -71.7639         calculate D2E/DX2 analytically  !
 ! D135  D(17,16,22,53)        -11.346          calculate D2E/DX2 analytically  !
 ! D136  D(17,16,22,54)       -131.8659         calculate D2E/DX2 analytically  !
 ! D137  D(17,16,22,55)        109.5997         calculate D2E/DX2 analytically  !
 ! D138  D(16,17,18,19)         -0.2724         calculate D2E/DX2 analytically  !
 ! D139  D(16,17,18,21)       -179.8891         calculate D2E/DX2 analytically  !
 ! D140  D(39,17,18,19)        178.1282         calculate D2E/DX2 analytically  !
 ! D141  D(39,17,18,21)         -1.4884         calculate D2E/DX2 analytically  !
 ! D142  D(17,18,19,20)          1.1341         calculate D2E/DX2 analytically  !
 ! D143  D(17,18,19,38)       -179.1933         calculate D2E/DX2 analytically  !
 ! D144  D(21,18,19,20)       -179.2468         calculate D2E/DX2 analytically  !
 ! D145  D(21,18,19,38)          0.4259         calculate D2E/DX2 analytically  !
 ! D146  D(17,18,21,32)        126.3345         calculate D2E/DX2 analytically  !
 ! D147  D(17,18,21,44)          5.3133         calculate D2E/DX2 analytically  !
 ! D148  D(17,18,21,45)       -115.126          calculate D2E/DX2 analytically  !
 ! D149  D(19,18,21,32)        -53.2743         calculate D2E/DX2 analytically  !
 ! D150  D(19,18,21,44)       -174.2955         calculate D2E/DX2 analytically  !
 ! D151  D(19,18,21,45)         65.2652         calculate D2E/DX2 analytically  !
 ! D152  D(18,19,20,15)          0.0368         calculate D2E/DX2 analytically  !
 ! D153  D(18,19,20,23)        179.3744         calculate D2E/DX2 analytically  !
 ! D154  D(38,19,20,15)       -179.6382         calculate D2E/DX2 analytically  !
 ! D155  D(38,19,20,23)         -0.3006         calculate D2E/DX2 analytically  !
 ! D156  D(15,20,23,56)        176.2458         calculate D2E/DX2 analytically  !
 ! D157  D(15,20,23,57)         55.874          calculate D2E/DX2 analytically  !
 ! D158  D(15,20,23,58)        -63.3335         calculate D2E/DX2 analytically  !
 ! D159  D(19,20,23,56)         -3.0761         calculate D2E/DX2 analytically  !
 ! D160  D(19,20,23,57)       -123.4479         calculate D2E/DX2 analytically  !
 ! D161  D(19,20,23,58)        117.3446         calculate D2E/DX2 analytically  !
 ! D162  D(12,28,29,62)         52.2667         calculate D2E/DX2 analytically  !
 ! D163  D(12,28,29,63)        -69.8674         calculate D2E/DX2 analytically  !
 ! D164  D(12,28,29,64)        172.6845         calculate D2E/DX2 analytically  !
 ! D165  D(13,28,29,62)        -43.303          calculate D2E/DX2 analytically  !
 ! D166  D(13,28,29,63)       -165.4371         calculate D2E/DX2 analytically  !
 ! D167  D(13,28,29,64)         77.1148         calculate D2E/DX2 analytically  !
 ! D168  D(33,28,29,62)        169.5467         calculate D2E/DX2 analytically  !
 ! D169  D(33,28,29,63)         47.4126         calculate D2E/DX2 analytically  !
 ! D170  D(33,28,29,64)        -70.0355         calculate D2E/DX2 analytically  !
 --------------------------------------------------------------------------------
 Trust Radius=2.00D-02 FncErr=5.00D-06 GrdErr=5.00D-06 EigMax=2.50D+02 EigMin=1.00D-04
 Number of steps in this run=     25 maximum allowed number of steps=    402.
 Search for a saddle point of order  1.
 GradGradGradGradGradGradGradGradGradGradGradGradGradGradGradGradGradGrad

 Leave Link  103 at Sun Apr 12 14:04:44 2020, MaxMem=  1966080000 cpu:               1.2 elap:               0.1
 (Enter /global/hds/software/cpu/non-eb/Gaussian/g16_C.01/l202.exe)
 Symmetry turned off by external request.
 Stoichiometry    C26H36Cl2N2Ru
 Framework group  C1[X(C26H36Cl2N2Ru)]
 Deg. of freedom   195
 Full point group                 C1      NOp   1
                          Input orientation:                          
 ---------------------------------------------------------------------
 Center     Atomic      Atomic             Coordinates (Angstroms)
 Number     Number       Type             X           Y           Z
 ---------------------------------------------------------------------
      1          6           0        0.284733   -0.822260    0.283983
      2          6           0       -0.327061    0.240910   -0.409479
      3          6           0       -1.730670    0.276501   -0.472858
      4          6           0       -2.528491   -0.724013    0.113570
      5          6           0       -1.876357   -1.801419    0.752331
      6          6           0       -0.468987   -1.847040    0.879098
      7          7           0       -2.651715   -2.862643    1.319015
      8          6           0       -3.333966   -3.782399    0.588450
      9          7           0       -4.091796   -4.527047    1.431435
     10          6           0       -3.792233   -4.217592    2.851202
     11          6           0       -3.090863   -2.860320    2.735075
     12         44           0       -3.204193   -3.992760   -1.403538
     13          6           0       -2.869694   -3.913391   -3.910694
     14          1           0       -1.778864   -3.867021   -4.194791
     15          6           0       -4.906535   -5.633633    1.033228
     16          6           0       -4.303829   -6.856778    0.668141
     17          6           0       -5.144308   -7.913649    0.266364
     18          6           0       -6.543856   -7.786644    0.257022
     19          6           0       -7.108954   -6.563396    0.669235
     20          6           0       -6.312605   -5.475829    1.061154
     21          6           0       -7.426126   -8.928998   -0.173599
     22          6           0       -2.811584   -7.041063    0.733429
     23          6           0       -6.926104   -4.171209    1.485742
     24          6           0        0.507878    1.319134   -1.049736
     25          6           0        0.196021   -2.962834    1.634422
     26          6           0       -4.029058   -0.634472    0.070066
     27         17           0       -0.858505   -4.696125   -1.202970
     28          6           0       -3.232914   -5.228711   -3.348169
     29          6           0       -4.529870   -5.902499   -3.690403
     30          6           0       -2.627020   -2.591231   -2.527103
     31         17           0       -5.545307   -3.346604   -1.686921
     32          1           0       -8.189399   -9.163017    0.599727
     33          1           0       -2.374011   -5.909926   -3.164677
     34          1           0       -3.795155   -1.988309    2.903904
     35          1           0       -2.200084   -2.760222    3.419820
     36          1           0       -3.115991   -5.024977    3.268569
     37          1           0       -4.744072   -4.177749    3.455211
     38          1           0       -8.207332   -6.448961    0.681516
     39          1           0       -4.685778   -8.875368   -0.023790
     40          1           0       -2.227957    1.120593   -0.982380
     41          1           0        1.385422   -0.855269    0.367733
     42          1           0        1.139679    0.905167   -1.866371
     43          1           0       -4.348058    0.369949   -0.273740
     44          1           0       -6.837745   -9.847823   -0.369269
     45          1           0       -7.983575   -8.676239   -1.102476
     46          1           0       -4.472133   -0.814710    1.072692
     47          1           0       -4.472705   -1.392147   -0.608146
     48          1           0        1.203004    1.781687   -0.315958
     49          1           0        1.299319   -2.884178    1.565055
     50          1           0       -0.116776   -3.945537    1.227868
     51          1           0       -0.081303   -2.942496    2.711054
     52          1           0       -0.123480    2.121446   -1.481534
     53          1           0       -2.546298   -8.112349    0.633043
     54          1           0       -2.402920   -6.666676    1.696045
     55          1           0       -2.284422   -6.476184   -0.064084
     56          1           0       -8.029232   -4.202243    1.384491
     57          1           0       -6.534834   -3.342399    0.860288
     58          1           0       -6.685133   -3.930990    2.544024
     59          1           0       -1.549296   -2.318199   -2.592083
     60          6           0       -3.850613   -3.255393   -4.854849
     61          1           0       -3.339455   -1.791512   -2.837026
     62          1           0       -5.389604   -5.207770   -3.683222
     63          1           0       -4.740163   -6.735105   -2.986676
     64          1           0       -4.453695   -6.352701   -4.710127
     65          1           0       -3.461977   -2.288181   -5.228159
     66          1           0       -4.025879   -3.919296   -5.729292
     67          1           0       -4.825416   -3.080083   -4.357885
 ---------------------------------------------------------------------
 Rotational constants (GHZ):           0.1931994           0.0991876           0.0865837
 Leave Link  202 at Sun Apr 12 14:04:44 2020, MaxMem=  1966080000 cpu:               0.4 elap:               0.1
 (Enter /global/hds/software/cpu/non-eb/Gaussian/g16_C.01/l301.exe)
 Basis read from chk: "tsMetathesis_C.chk" (5D, 7F)
 Pseudo-potential data read from chk file.
   646 basis functions,  1437 primitive gaussians,   682 cartesian basis functions
   128 alpha electrons      128 beta electrons
       nuclear repulsion energy      4068.7499497716 Hartrees.
 IExCor= 1009 DFT=T Ex=PBE Corr=PBE ExCW=0 ScaHFX=  0.000000
 ScaDFX=  1.000000  1.000000  1.000000  1.000000 ScalE2=  1.000000  1.000000
 IRadAn=      5 IRanWt=     -1 IRanGd=            0 ICorTp=0 IEmpDi=141
 NAtoms=   67 NActive=   67 NUniq=   67 SFac= 1.00D+00 NAtFMM=   60 NAOKFM=T Big=T
 Integral buffers will be    131072 words long.
 Raffenetti 2 integral format.
 Two-electron integral symmetry is turned off.
 R6DIni: Non-standard D2/D3 S6 parameter, value=     1.000000
 R6DIni: Non-standard D2/D3 S8 parameter, value=     0.358940
 R6DIni: Non-standard D3BJ A1 parameter, value=     0.012092
 R6DIni: Non-standard D3BJ A2 parameter, value=     5.938951
 R6Disp:  Grimme-D3(BJ) Dispersion energy=       -0.1515689507 Hartrees.
 Nuclear repulsion after empirical dispersion term =     4068.5983808208 Hartrees.
 No density basis found on file  20724.
 Force inversion solution in PCM.
 Using the following non-standard input for PCM:
 radii=UAHF
 pcmdoc
 Dis
 Rep
 Cav
 --- end of non-standard input.
 Force inversion solution in PCM.
 ------------------------------------------------------------------------------
 United Atom Topological Model (UAHF parameters set).
  Nord Group  Hybr  Charge Alpha Radius          Bonded to
    1   CH    sp2   0.00   1.10  1.905   C2   [s]  C6   [s]
    2   C     sp2   0.00   1.10  1.725   C1   [s]  C3   [s]  C24  [s]
    3   CH    sp2   0.00   1.10  1.905   C2   [s]  C4   [s]
    4   C     sp2   0.00   1.10  1.725   C3   [s]  C5   [s]  C26  [s]
    5   C     sp2   0.00   1.10  1.725   C4   [s]  C6   [s]  N7   [s]
    6   C     sp2   0.00   1.10  1.725   C1   [s]  C5   [s]  C25  [s]
    7   N     sp2   0.00   1.10  1.590   C5   [s]  C8   [s]  C11  [s]
    8   C     sp2   0.00   1.10  1.680   N7   [s]  N9   [s] Ru12  [d]
    9   N     sp2   0.00   1.10  1.590   C8   [s]  C10  [s]  C15  [s]
   10   CH2   sp3   0.00   1.10  1.680   N9   [s]  C11  [s]
   11   CH2   sp3   0.00   1.10  1.680   N7   [s]  C10  [s]
   12  Ru     *     0.00   1.10  1.482   C8   [d]  C13  [s] Cl27  [s]  C28  [s]
                                         C30  [t] Cl31  [s]
   13   CH    sp3   0.00   1.10  1.680  Ru12  [s]  C28  [s]  C30  [s]  C60  [s]
   15   C     sp2   0.00   1.10  1.725   N9   [s]  C16  [s]  C20  [s]
   16   C     sp2   0.00   1.10  1.725   C15  [s]  C17  [s]  C22  [s]
   17   CH    sp2   0.00   1.10  1.905   C16  [s]  C18  [s]
   18   C     sp2   0.00   1.10  1.725   C17  [s]  C19  [s]  C21  [s]
   19   CH    sp2   0.00   1.10  1.905   C18  [s]  C20  [s]
   20   C     sp2   0.00   1.10  1.725   C15  [s]  C19  [s]  C23  [s]
   21   CH3   sp3   0.00   1.10  1.950   C18  [s]
   22   CH3   sp3   0.00   1.10  1.950   C16  [s]
   23   CH3   sp3   0.00   1.10  1.950   C20  [s]
   24   CH3   sp3   0.00   1.10  1.950   C2   [s]
   25   CH3   sp3   0.00   1.10  1.950   C6   [s]
   26   CH3   sp3   0.00   1.10  1.950   C4   [s]
   27  Cl     sp3   0.00   1.10  1.980  Ru12  [s]
   28   CH    sp3   0.00   1.10  1.770  Ru12  [s]  C13  [s]  C29  [s]
   29   CH3   sp3   0.00   1.10  1.950   C28  [s]
   30   CH2   sp3   0.00   1.10  1.860  Ru12  [t]  C13  [s]
   31  Cl     sp3   0.00   1.10  1.980  Ru12  [s]
   60   CH3   sp3   0.00   1.10  2.040   C13  [s]
 ------------------------------------------------------------------------------
 Polarizable Continuum Model (PCM)
 =================================
 Model                : PCM.
 Atomic radii         : UAHF (United Atom Topological Model).
 Polarization charges : Total charges.
 Charge compensation  : None.
 Solution method      : Matrix inversion.
 Cavity type          : Scaled VdW (van der Waals Surface) (Alpha=1.100).
 Cavity algorithm     : GePol (No added spheres)
                        Default sphere list used, NSphG=   31.
                        Lebedev-Laikov grids with approx.  5.0 points / Ang**2.
                        Smoothing algorithm: York/Karplus (Gamma=1.0000).
                        Polarization charges: spherical gaussians, with
                                              point-specific exponents (IZeta= 3).
                        Self-potential: point-specific (ISelfS= 7).
                        Self-field    : sphere-specific E.n sum rule (ISelfD= 2).
 1st derivatives      : Analytical E(r).r(x)/FMM algorithm (CHGder, D1EAlg=3).
                        Cavity 1st derivative terms included.
 2nd derivatives      : Analytical E(r).r(xy)/FMM algorithm (CHGder, D2EAlg=3).
                        Cavity 2nd derivative terms included.
 Solvent              : Water, Eps=  78.355300 Eps(inf)=   1.777849
 ------------------------------------------------------------------------------
 GePol: Number of generator spheres                  =      31
 GePol: Total number of spheres                      =      31
 GePol: Number of exposed spheres                    =      31 (100.00%)
 GePol: Number of points                             =    3297
 GePol: Average weight of points                     =       0.15
 GePol: Minimum weight of points                     =   0.25D-10
 GePol: Maximum weight of points                     =    0.21758
 GePol: Number of points with low weight             =     144
 GePol: Fraction of low-weight points (<1% of avg)   =       4.37%
 GePol: Cavity surface area                          =    495.512 Ang**2
 GePol: Cavity volume                                =    571.624 Ang**3
 DisRep: Neglecting contributions from atom   12 of solute.
 PCM non-electrostatic energy =         0.0294758564 Hartrees.
 Nuclear repulsion after PCM non-electrostatic terms =     4068.6278566772 Hartrees.
 Leave Link  301 at Sun Apr 12 14:04:45 2020, MaxMem=  1966080000 cpu:               3.9 elap:               0.3
 (Enter /global/hds/software/cpu/non-eb/Gaussian/g16_C.01/linda-exe/../l302.exel)
 NPDir=0 NMtPBC=     1 NCelOv=     1 NCel=       1 NClECP=     1 NCelD=      1
         NCelK=      1 NCelE2=     1 NClLst=     1 CellRange=     0.0.
 One-electron integrals computed using PRISM.
   1 Symmetry operations used in ECPInt.
 ECPInt:  NShTT=   46360 NPrTT=  371042 LenC2=   40970 LenP2D=  165780.
 LDataN:  DoStor=T MaxTD1= 7 Len=  274
 NBasis=   646 RedAO= T EigKep=  1.80D-04  NBF=   646
 NBsUse=   646 1.00D-06 EigRej= -1.00D+00 NBFU=   646
 Precomputing XC quadrature grid using
 IXCGrd= 4 IRadAn=           5 IRanWt=          -1 IRanGd=           0 AccXCQ= 0.00D+00.
 Defaulting to unpruned grid for atomic number  44.
 Generated NRdTot=       0 NPtTot=           0 NUsed=           0 NTot=          32
 NSgBfM=   679   679   679   679   679 MxSgAt=    67 MxSgA2=    67.
 Leave Link  302 at Sun Apr 12 14:04:47 2020, MaxMem=  1966080000 cpu:              30.4 elap:               1.9
 (Enter /global/hds/software/cpu/non-eb/Gaussian/g16_C.01/l303.exe)
 DipDrv:  MaxL=1.
 Leave Link  303 at Sun Apr 12 14:04:48 2020, MaxMem=  1966080000 cpu:               2.8 elap:               0.2
 (Enter /global/hds/software/cpu/non-eb/Gaussian/g16_C.01/linda-exe/../l401.exel)
 Initial guess from the checkpoint file:  "tsMetathesis_C.chk"
 SCF N**3 symmetry information disabled.
 B after Tr=     0.000000    0.000000    0.000000
         Rot=    1.000000    0.000000    0.000000    0.000000 Ang=   0.00 deg.
 Guess basis will be translated and rotated to current coordinates.
 JPrj=2 DoOrth=T DoCkMO=T.
 Leave Link  401 at Sun Apr 12 14:04:50 2020, MaxMem=  1966080000 cpu:              17.2 elap:               1.1
 (Enter /global/hds/software/cpu/non-eb/Gaussian/g16_C.01/linda-exe/../l502.exel)
 Two-electron integral symmetry not used.
 Closed shell SCF:
 Using DIIS extrapolation, IDIIS=  1040.
 NGot=  1966080000 LenX=  1965131512 LenY=  1964665706
 Requested convergence on RMS density matrix=1.00D-08 within 250 cycles.
 Requested convergence on MAX density matrix=1.00D-06.
 Requested convergence on             energy=1.00D-06.
 Virtual orbitals will be shifted by   0.300 hartree.
 No special actions if energy rises.
 Fock matrices will be formed incrementally for  20 cycles.

 Cycle   1  Pass 1  IDiag  1:
 FoFJK:  IHMeth= 1 ICntrl=     500 DoSepK=F KAlg= 0 I1Cent=           0 FoldK=F
 IRaf= 990000000 NMat=       1 IRICut=       1 DoRegI=T DoRafI=F ISym2E= 0 IDoP0=0 IntGTp=1.
 FoFCou: FMM=T IPFlag=           0 FMFlag=      100000 FMFlg1=        2001
         NFxFlg=           0 DoJE=T BraDBF=F KetDBF=F FulRan=T
         wScrn=  0.000000 ICntrl=       500 IOpCl=  0 I1Cent=           0 NGrid=           0
         NMat0=    1 NMatS0=      1 NMatT0=    0 NMatD0=    1 NMtDS0=    0 NMtDT0=    0
 Symmetry not used in FoFCou.
 FMM levels:  10  Number of levels for PrismC:   9
 Defaulting to unpruned grid for atomic number  44.
 Defaulting to unpruned grid for atomic number  44.
 Defaulting to unpruned grid for atomic number  44.
 Defaulting to unpruned grid for atomic number  44.
 Defaulting to unpruned grid for atomic number  44.
 Defaulting to unpruned grid for atomic number  44.
 Defaulting to unpruned grid for atomic number  44.
 Defaulting to unpruned grid for atomic number  44.
 Defaulting to unpruned grid for atomic number  44.
 Defaulting to unpruned grid for atomic number  44.
 Defaulting to unpruned grid for atomic number  44.
 Defaulting to unpruned grid for atomic number  44.
 Defaulting to unpruned grid for atomic number  44.
 Defaulting to unpruned grid for atomic number  44.
 Defaulting to unpruned grid for atomic number  44.
 Defaulting to unpruned grid for atomic number  44.
 Inv3:  Mode=1 IEnd=    32610627.
 Iteration    1 A*A^-1 deviation from unit magnitude is 6.22D-15 for   3273.
 Iteration    1 A*A^-1 deviation from orthogonality  is 2.68D-15 for   3291   3183.
 Iteration    1 A^-1*A deviation from unit magnitude is 6.00D-15 for   3273.
 Iteration    1 A^-1*A deviation from orthogonality  is 2.25D-15 for   3282   3063.
 E= -2135.43528505683    
 DIIS: error= 8.27D-08 at cycle   1 NSaved=   1.
 NSaved= 1 IEnMin= 1 EnMin= -2135.43528505683     IErMin= 1 ErrMin= 8.27D-08
 ErrMax= 8.27D-08  0.00D+00 EMaxC= 1.00D-01 BMatC= 7.07D-12 BMatP= 7.07D-12
 IDIUse=1 WtCom= 1.00D+00 WtEn= 0.00D+00
 Coeff-Com:  0.100D+01
 Coeff:      0.100D+01
 Gap=     0.050 Goal=   None    Shift=    0.300
 RMSDP=1.10D-08 MaxDP=1.12D-06              OVMax= 4.87D-06

 Cycle   2  Pass 1  IDiag  1:
 RMSU=  1.10D-08    CP:  1.00D+00
 E= -2135.43528505686     Delta-E=       -0.000000000037 Rises=F Damp=F
 DIIS: error= 5.99D-08 at cycle   2 NSaved=   2.
 NSaved= 2 IEnMin= 2 EnMin= -2135.43528505686     IErMin= 2 ErrMin= 5.99D-08
 ErrMax= 5.99D-08  0.00D+00 EMaxC= 1.00D-01 BMatC= 3.40D-12 BMatP= 7.07D-12
 IDIUse=1 WtCom= 1.00D+00 WtEn= 0.00D+00
 Coeff-Com:  0.302D+00 0.698D+00
 Coeff:      0.302D+00 0.698D+00
 Gap=     0.050 Goal=   None    Shift=    0.300
 RMSDP=8.16D-09 MaxDP=8.84D-07 DE=-3.73D-11 OVMax= 3.83D-06

 Error on total polarization charges =  0.05666
 SCF Done:  E(RPBE-PBE) =  -2135.43528506     A.U. after    2 cycles
            NFock=  2  Conv=0.82D-08     -V/T= 2.0346
 KE= 2.064114537081D+03 PE=-1.312506253196D+04 EE= 4.856884853146D+03
 Leave Link  502 at Sun Apr 12 14:05:31 2020, MaxMem=  1966080000 cpu:             558.5 elap:              40.9
 (Enter /global/hds/software/cpu/non-eb/Gaussian/g16_C.01/l801.exe)
 DoSCS=F DFT=T ScalE2(SS,OS)=  1.000000  1.000000
 Range of M.O.s used for correlation:     1   646
 NBasis=   646 NAE=   128 NBE=   128 NFC=     0 NFV=     0
 NROrb=    646 NOA=   128 NOB=   128 NVA=   518 NVB=   518

 **** Warning!!: The largest alpha MO coefficient is  0.10238656D+02


 **** Warning!!: The smallest alpha delta epsilon is  0.49801133D-01

 Leave Link  801 at Sun Apr 12 14:05:32 2020, MaxMem=  1966080000 cpu:               0.5 elap:               0.1
 (Enter /global/hds/software/cpu/non-eb/Gaussian/g16_C.01/linda-exe/../l1101.exel)
 Using compressed storage, NAtomX=    67.
 Will process     68 centers per pass.
   1 Symmetry operations used in ECPInt.
 ECPInt:  NShTT=   46360 NPrTT=  371042 LenC2=   40970 LenP2D=  165780.
 LDataN:  DoStor=T MaxTD1= 8 Len=  415
 Number of processors reduced to   6 by ecpmxn.
 R6Disp: Adding Grimme-D3(BJ) dispersion energy 1st derivatives to the gradient.
 Leave Link 1101 at Sun Apr 12 14:05:38 2020, MaxMem=  1966080000 cpu:              68.8 elap:               5.5
 (Enter /global/hds/software/cpu/non-eb/Gaussian/g16_C.01/l1102.exe)
 Symmetrizing basis deriv contribution to polar:
 IMax=3 JMax=2 DiffMx= 0.00D+00
 Leave Link 1102 at Sun Apr 12 14:05:39 2020, MaxMem=  1966080000 cpu:               2.7 elap:               0.2
 (Enter /global/hds/software/cpu/non-eb/Gaussian/g16_C.01/linda-exe/../l1110.exel)
 Forming Gx(P) for the SCF density, NAtomX=    67.
 Integral derivatives from FoFJK, PRISM(SPDF).
 Do as many integral derivatives as possible in FoFJK.
 G2DrvN: MDV=    1966072829.
 G2DrvN: will do    68 centers at a time, making    1 passes.
 Calling FoFCou, ICntrl=  3507 FMM=T I1Cent=   0 AccDes= 0.00D+00.
 FoFJK:  IHMeth= 1 ICntrl=    3507 DoSepK=F KAlg= 0 I1Cent=           0 FoldK=F
 IRaf=         0 NMat=       1 IRICut=       1 DoRegI=T DoRafI=F ISym2E= 0 IDoP0=0 IntGTp=1.
 FoFCou: FMM=T IPFlag=           0 FMFlag=      100000 FMFlg1=        2001
         NFxFlg=           0 DoJE=F BraDBF=F KetDBF=F FulRan=T
         wScrn=  0.000000 ICntrl=      3507 IOpCl=  0 I1Cent=           0 NGrid=           0
         NMat0=    1 NMatS0=      1 NMatT0=    0 NMatD0=    1 NMtDS0=    0 NMtDT0=    0
 Symmetry not used in FoFCou.
 FMM levels:  10  Number of levels for PrismC:   9
 Defaulting to unpruned grid for atomic number  44.
 Defaulting to unpruned grid for atomic number  44.
 Defaulting to unpruned grid for atomic number  44.
 Defaulting to unpruned grid for atomic number  44.
 Defaulting to unpruned grid for atomic number  44.
 Defaulting to unpruned grid for atomic number  44.
 Defaulting to unpruned grid for atomic number  44.
 Defaulting to unpruned grid for atomic number  44.
 Defaulting to unpruned grid for atomic number  44.
 Defaulting to unpruned grid for atomic number  44.
 Defaulting to unpruned grid for atomic number  44.
 Defaulting to unpruned grid for atomic number  44.
 Defaulting to unpruned grid for atomic number  44.
 Defaulting to unpruned grid for atomic number  44.
 Defaulting to unpruned grid for atomic number  44.
 Defaulting to unpruned grid for atomic number  44.
 NEqPCM:  Using equilibrium solvation (IEInf=0, Eps=  78.3553, EpsInf=   1.7778)
 G2PCM: DoFxE=T DoFxN=T DoGrad=T DoDP/DQ/DG/TGxP=FFFF NFrqRd=   0 IEInf=0 SqF1=F DoCFld=F IF1Alg=4.
 GePol: Maximum number of non-zero 1st derivatives   =     295
 DisRep: Neglecting contributions from atom   12 of solute.
 End of G2Drv F.D. properties file   721 does not exist.
 End of G2Drv F.D. properties file   722 does not exist.
 End of G2Drv F.D. properties file   788 does not exist.
 Leave Link 1110 at Sun Apr 12 14:10:14 2020, MaxMem=  1966080000 cpu:            4268.1 elap:             273.3
 (Enter /global/hds/software/cpu/non-eb/Gaussian/g16_C.01/linda-exe/../l1002.exel)
 Minotr:  Closed shell wavefunction.
          IDoAtm=11111111111111111111111111111111111111111111111111
          IDoAtm=11111111111111111
 NEqPCM:  Using equilibrium solvation (IEInf=0, Eps=  78.3553, EpsInf=   1.7778)
          Direct CPHF calculation.
          Differentiating once with respect to nuclear coordinates.
          Requested convergence is 1.0D-08 RMS, and 1.0D-07 maximum.
          Secondary convergence is 1.0D-12 RMS, and 1.0D-12 maximum.
          NewPWx=T KeepS1=F KeepF1=F KeepIn=T MapXYZ=F SortEE=F KeepMc=T.
 Defaulting to unpruned grid for atomic number  44.
        30558 words used for storage of precomputed grid.
 Two-electron integral symmetry not used.
          MDV=    1966080000 using IRadAn=       4.
          Solving linear equations simultaneously, MaxMat=      96.
 FoF2E skips out because all densities are zero.
 CalDSu exits because no D1Ps are significant.
 FoFJK:  IHMeth= 1 ICntrl=     500 DoSepK=F KAlg= 0 I1Cent=           0 FoldK=F
 IRaf= 990000000 NMat=      96 IRICut=       1 DoRegI=T DoRafI=F ISym2E= 0 IDoP0=3 IntGTp=3.
 Defaulting to unpruned grid for atomic number  44.
 Defaulting to unpruned grid for atomic number  44.
 Defaulting to unpruned grid for atomic number  44.
 Defaulting to unpruned grid for atomic number  44.
 Defaulting to unpruned grid for atomic number  44.
 Defaulting to unpruned grid for atomic number  44.
 Defaulting to unpruned grid for atomic number  44.
 Defaulting to unpruned grid for atomic number  44.
 Defaulting to unpruned grid for atomic number  44.
 Defaulting to unpruned grid for atomic number  44.
 Defaulting to unpruned grid for atomic number  44.
 Defaulting to unpruned grid for atomic number  44.
 Defaulting to unpruned grid for atomic number  44.
 Defaulting to unpruned grid for atomic number  44.
 Defaulting to unpruned grid for atomic number  44.
 Defaulting to unpruned grid for atomic number  44.
          There are   204 degrees of freedom in the 1st order CPHF.  IDoFFX=6 NUNeed=     0.
    198 vectors produced by pass  0 Test12= 6.63D-14 1.00D-09 XBig12= 2.72D-01 2.65D-01.
 AX will form    96 AO Fock derivatives at one time.
    198 vectors produced by pass  1 Test12= 6.63D-14 1.00D-09 XBig12= 5.58D-02 6.86D-02.
    198 vectors produced by pass  2 Test12= 6.63D-14 1.00D-09 XBig12= 2.85D-04 1.72D-03.
    198 vectors produced by pass  3 Test12= 6.63D-14 1.00D-09 XBig12= 7.90D-07 5.70D-05.
    178 vectors produced by pass  4 Test12= 6.63D-14 1.00D-09 XBig12= 2.16D-10 8.55D-07.
     46 vectors produced by pass  5 Test12= 6.63D-14 1.00D-09 XBig12= 3.36D-14 1.16D-08.
 InvSVY:  IOpt=1 It=  1 EMax= 8.88D-16
 Solved reduced A of dimension  1016 with   204 vectors.
 End of Minotr F.D. properties file   721 does not exist.
 End of Minotr F.D. properties file   722 does not exist.
 End of Minotr F.D. properties file   788 does not exist.
 Leave Link 1002 at Sun Apr 12 14:22:59 2020, MaxMem=  1966080000 cpu:           12207.3 elap:             764.1
 (Enter /global/hds/software/cpu/non-eb/Gaussian/g16_C.01/l601.exe)
 Copying SCF densities to generalized density rwf, IOpCl= 0 IROHF=0.

 **********************************************************************

            Population analysis using the SCF Density.

 **********************************************************************

 Alpha  occ. eigenvalues -- -100.60767-100.60680 -14.03655 -14.03523  -9.95978
 Alpha  occ. eigenvalues --   -9.93565  -9.92756  -9.92681  -9.92640  -9.92505
 Alpha  occ. eigenvalues --   -9.91958  -9.91667  -9.90795  -9.90667  -9.90534
 Alpha  occ. eigenvalues --   -9.90515  -9.90483  -9.90377  -9.89144  -9.89041
 Alpha  occ. eigenvalues --   -9.88954  -9.88950  -9.88899  -9.88822  -9.88806
 Alpha  occ. eigenvalues --   -9.88777  -9.88489  -9.88428  -9.88308  -9.88075
 Alpha  occ. eigenvalues --   -9.10517  -9.10425  -6.92596  -6.92504  -6.92106
 Alpha  occ. eigenvalues --   -6.92087  -6.92022  -6.91989  -2.81702  -1.72678
 Alpha  occ. eigenvalues --   -1.70785  -1.69193  -0.92559  -0.84388  -0.78070
 Alpha  occ. eigenvalues --   -0.76633  -0.73290  -0.71127  -0.70484  -0.70291
 Alpha  occ. eigenvalues --   -0.69222  -0.67958  -0.66555  -0.66118  -0.65399
 Alpha  occ. eigenvalues --   -0.63389  -0.62286  -0.62122  -0.60404  -0.60205
 Alpha  occ. eigenvalues --   -0.60078  -0.59556  -0.56913  -0.55818  -0.54488
 Alpha  occ. eigenvalues --   -0.51336  -0.51098  -0.50231  -0.48802  -0.46869
 Alpha  occ. eigenvalues --   -0.46562  -0.44916  -0.44337  -0.42994  -0.42282
 Alpha  occ. eigenvalues --   -0.40598  -0.39464  -0.39136  -0.38640  -0.37878
 Alpha  occ. eigenvalues --   -0.37758  -0.37297  -0.36811  -0.36720  -0.36049
 Alpha  occ. eigenvalues --   -0.35736  -0.35695  -0.35613  -0.35495  -0.35356
 Alpha  occ. eigenvalues --   -0.34970  -0.34819  -0.34414  -0.34107  -0.34029
 Alpha  occ. eigenvalues --   -0.33718  -0.33510  -0.33415  -0.33328  -0.32714
 Alpha  occ. eigenvalues --   -0.31564  -0.31388  -0.30959  -0.30674  -0.30072
 Alpha  occ. eigenvalues --   -0.29985  -0.29456  -0.29354  -0.29140  -0.29088
 Alpha  occ. eigenvalues --   -0.28817  -0.28705  -0.28500  -0.28180  -0.25757
 Alpha  occ. eigenvalues --   -0.24641  -0.23618  -0.23127  -0.22935  -0.22052
 Alpha  occ. eigenvalues --   -0.21531  -0.20946  -0.20844  -0.20535  -0.20265
 Alpha  occ. eigenvalues --   -0.18603  -0.15886  -0.14244
 Alpha virt. eigenvalues --   -0.09264  -0.06020  -0.04398  -0.03792  -0.03640
 Alpha virt. eigenvalues --   -0.02879  -0.02549  -0.01336   0.02673   0.03137
 Alpha virt. eigenvalues --    0.04050   0.04902   0.04971   0.05810   0.06666
 Alpha virt. eigenvalues --    0.07034   0.07224   0.07572   0.07987   0.08216
 Alpha virt. eigenvalues --    0.08482   0.08619   0.09295   0.09801   0.10213
 Alpha virt. eigenvalues --    0.10496   0.10585   0.10955   0.11058   0.11488
 Alpha virt. eigenvalues --    0.11664   0.12163   0.12315   0.12629   0.12928
 Alpha virt. eigenvalues --    0.13531   0.13799   0.14207   0.14576   0.14896
 Alpha virt. eigenvalues --    0.15096   0.15332   0.15641   0.16006   0.16696
 Alpha virt. eigenvalues --    0.17300   0.17577   0.18071   0.18189   0.18886
 Alpha virt. eigenvalues --    0.19116   0.19579   0.19755   0.20334   0.20498
 Alpha virt. eigenvalues --    0.20750   0.21947   0.22002   0.22476   0.22757
 Alpha virt. eigenvalues --    0.23521   0.23752   0.24160   0.25713   0.26759
 Alpha virt. eigenvalues --    0.27550   0.27781   0.27917   0.28192   0.28622
 Alpha virt. eigenvalues --    0.29236   0.29727   0.30363   0.30539   0.31008
 Alpha virt. eigenvalues --    0.31341   0.32148   0.32431   0.32768   0.33721
 Alpha virt. eigenvalues --    0.35256   0.35803   0.37383   0.38152   0.38458
 Alpha virt. eigenvalues --    0.38763   0.39375   0.39887   0.40055   0.40211
 Alpha virt. eigenvalues --    0.40544   0.40838   0.41016   0.41710   0.42009
 Alpha virt. eigenvalues --    0.42765   0.43131   0.43568   0.43818   0.44259
 Alpha virt. eigenvalues --    0.44671   0.44944   0.45193   0.45675   0.46036
 Alpha virt. eigenvalues --    0.46298   0.46666   0.46700   0.47689   0.47772
 Alpha virt. eigenvalues --    0.48206   0.48713   0.48853   0.49722   0.50289
 Alpha virt. eigenvalues --    0.50517   0.51052   0.51851   0.51948   0.52383
 Alpha virt. eigenvalues --    0.52628   0.53016   0.53686   0.53757   0.54252
 Alpha virt. eigenvalues --    0.54886   0.54991   0.55924   0.56497   0.56801
 Alpha virt. eigenvalues --    0.56934   0.57543   0.58132   0.58320   0.58676
 Alpha virt. eigenvalues --    0.59321   0.59521   0.59712   0.59951   0.60148
 Alpha virt. eigenvalues --    0.60333   0.60438   0.60543   0.60924   0.61137
 Alpha virt. eigenvalues --    0.61294   0.61580   0.61764   0.61979   0.62232
 Alpha virt. eigenvalues --    0.62527   0.62881   0.63214   0.63493   0.63957
 Alpha virt. eigenvalues --    0.64179   0.64233   0.64375   0.65027   0.65093
 Alpha virt. eigenvalues --    0.65231   0.65561   0.65999   0.66470   0.66557
 Alpha virt. eigenvalues --    0.67118   0.67306   0.67525   0.67861   0.68031
 Alpha virt. eigenvalues --    0.68246   0.68501   0.68668   0.69380   0.69712
 Alpha virt. eigenvalues --    0.70375   0.70534   0.70835   0.71554   0.71797
 Alpha virt. eigenvalues --    0.72507   0.73618   0.74331   0.74907   0.75210
 Alpha virt. eigenvalues --    0.75700   0.76348   0.77096   0.77708   0.78353
 Alpha virt. eigenvalues --    0.78687   0.78885   0.79674   0.80280   0.80963
 Alpha virt. eigenvalues --    0.81664   0.81800   0.82657   0.83366   0.84216
 Alpha virt. eigenvalues --    0.84780   0.85381   0.85557   0.86024   0.86210
 Alpha virt. eigenvalues --    0.86502   0.86677   0.87323   0.88130   0.88673
 Alpha virt. eigenvalues --    0.88949   0.89320   0.90382   0.91254   0.91995
 Alpha virt. eigenvalues --    0.92141   0.92602   0.93397   0.94120   0.94251
 Alpha virt. eigenvalues --    0.96005   0.96585   0.96799   0.97309   0.97704
 Alpha virt. eigenvalues --    0.97927   0.98457   0.99158   0.99868   1.00320
 Alpha virt. eigenvalues --    1.00516   1.01288   1.02072   1.03016   1.03196
 Alpha virt. eigenvalues --    1.03816   1.04383   1.04830   1.06180   1.07393
 Alpha virt. eigenvalues --    1.08177   1.09494   1.09883   1.10185   1.10770
 Alpha virt. eigenvalues --    1.12003   1.12950   1.15207   1.15245   1.17094
 Alpha virt. eigenvalues --    1.17423   1.18086   1.19113   1.19978   1.21121
 Alpha virt. eigenvalues --    1.21159   1.22088   1.22457   1.23482   1.23503
 Alpha virt. eigenvalues --    1.24197   1.24822   1.25636   1.26071   1.26295
 Alpha virt. eigenvalues --    1.26937   1.27645   1.28788   1.29531   1.29931
 Alpha virt. eigenvalues --    1.30626   1.31868   1.32180   1.33156   1.33805
 Alpha virt. eigenvalues --    1.34534   1.34871   1.35188   1.35667   1.35888
 Alpha virt. eigenvalues --    1.36101   1.36226   1.36840   1.37235   1.37760
 Alpha virt. eigenvalues --    1.38431   1.38538   1.39482   1.39990   1.40435
 Alpha virt. eigenvalues --    1.40566   1.42164   1.42461   1.43018   1.43283
 Alpha virt. eigenvalues --    1.43625   1.44216   1.44565   1.44902   1.45372
 Alpha virt. eigenvalues --    1.46375   1.46412   1.46911   1.47046   1.47720
 Alpha virt. eigenvalues --    1.47840   1.49442   1.50029   1.50510   1.50978
 Alpha virt. eigenvalues --    1.51319   1.51620   1.52085   1.52278   1.52898
 Alpha virt. eigenvalues --    1.53267   1.53492   1.54395   1.54621   1.55277
 Alpha virt. eigenvalues --    1.55859   1.55972   1.56180   1.56743   1.56841
 Alpha virt. eigenvalues --    1.57258   1.57464   1.57845   1.58033   1.58180
 Alpha virt. eigenvalues --    1.58358   1.58617   1.59043   1.59521   1.59908
 Alpha virt. eigenvalues --    1.59999   1.60149   1.61390   1.61740   1.61915
 Alpha virt. eigenvalues --    1.62079   1.62244   1.63079   1.63223   1.63357
 Alpha virt. eigenvalues --    1.63758   1.64417   1.64556   1.65038   1.65413
[...]
 0000075,-0.00000033,-0.00000016,0.00000026,0.00000594,-0.00001647,0.00
 000218,0.00000131,0.00000236,-0.00000095,0.00000217,0.00000026,0.00000
 088,-0.00000259,0.00000180,-0.00000532,0.00000158,0.00000016,0.0000011
 1,-0.00000104,0.00000274,-0.00000200,0.00000013,-0.00000256,-0.0000003
 6,-0.00000043,0.00000137,-0.00000094,0.00000133,0.00000755,-0.00000165
 ,-0.00000149,0.00000017,0.00000032,0.00000264,0.00000079,0.00000095,0.
 00000041,0.00000132,-0.00000100,-0.00011430,0.00014042,0.00016702,-0.0
 8238834,-0.23992567,0.07630366,-0.00024891,0.00052793,-0.00015873,0.00
 004880,-0.00008828,-0.00002405,-0.00002396,0.00001805,-0.00000510,0.00
 005609,0.00014218,-0.00003666,0.08817761,0.25794344,-0.00000741,-0.000
 01017,0.00000311,-0.00000290,0.00000348,-0.00000113,-0.00000003,0.0000
 0200,0.00000105,-0.00000501,-0.00000185,-0.00000684,0.00004105,0.00003
 049,-0.00003908,0.00001555,-0.00000596,0.00000618,-0.00002079,-0.00002
 920,-0.00017041,-0.00000595,-0.00017543,0.00040107,0.00004201,0.000025
 68,-0.00013781,0.00001131,0.00002809,0.00000584,-0.00004553,-0.0000198
 1,0.00000850,0.00008093,0.00032880,-0.00088571,0.00759770,0.01527103,-
 0.00889344,0.00007044,-0.00057757,0.00044894,-0.00003203,-0.00004550,-
 0.00002698,0.00001026,0.00000069,-0.00000005,0.00000033,0.00000525,0.0
 0000229,-0.00000212,-0.00000075,-0.00000004,0.00000423,0.00000053,-0.0
 0000155,0.00000141,0.00000642,0.00000250,0.00000199,-0.00000066,0.0000
 0018,0.00000192,-0.00000178,0.00000377,-0.00000313,-0.00000400,-0.0000
 1374,-0.00000419,0.00000091,-0.00000249,0.00000077,-0.00000335,-0.0000
 0396,-0.00001272,-0.00001499,-0.00000207,-0.00014445,0.00003013,-0.000
 01743,-0.00324209,0.00152699,-0.00033018,-0.00029915,-0.00023624,-0.00
 002557,0.00015776,0.00133305,0.00055240,0.00006109,-0.00006767,-0.0002
 5024,0.00000082,0.00000182,0.00000038,0.00037004,0.00078265,-0.0002198
 7,0.00000138,0.00000764,-0.00001264,0.00001663,0.00000089,-0.00001130,
 0.00000085,-0.00001203,-0.00001481,-0.00000925,-0.00000086,-0.00000474
 ,0.00000173,0.00000180,0.00000080,0.00000133,0.00000188,0.00000078,-0.
 00000029,-0.00000467,0.00000070,-0.00000200,-0.00000212,0.00000102,-0.
 00000192,-0.00000207,0.00000254,-0.00000219,-0.00001086,-0.00000554,0.
 00000040,0.00000102,0.00000031,0.00000081,0.00000174,0.00000093,0.0000
 0038,0.00000117,0.00000332,0.00000644,0.00003685,-0.00001466,-0.000000
 92,-0.00000279,0.00000167,-0.00000257,-0.00000046,-0.00000123,0.000001
 32,-0.00000387,0.00000750,-0.00000108,0.00000043,-0.00000059,-0.000000
 09,-0.00000233,0.00000103,-0.00000015,0.00000131,-0.00000138,0.0000012
 2,-0.00000067,0.00000228,0.00000050,-0.00000596,0.00000671,0.00000302,
 0.00000143,-0.00000156,-0.00000583,0.00001186,0.00001425,0.00000226,0.
 00000264,-0.00000278,0.00002576,-0.00008215,-0.00008604,0.03060828,0.0
 7399141,-0.06812187,0.00020059,-0.00038103,-0.00033564,-0.00005123,-0.
 00030373,-0.00000301,0.00009207,0.00003993,0.00009284,-0.00002407,0.00
 016454,0.00003728,-0.03026765,-0.08316058,0.07446474,-0.00001245,-0.00
 001346,0.00000948,0.00000084,0.00000833,-0.00000312,0.00001223,-0.0000
 0144,-0.00001546,-0.00002139,-0.00000485,-0.00001318,0.00005545,0.0000
 2099,-0.00008874,0.00003952,-0.00001005,0.00000883,-0.00000832,0.00000
 241,-0.00021088,0.00024947,-0.00013145,0.00013298,-0.00000228,-0.00005
 514,-0.00026336,0.00004406,0.00003803,-0.00002014,-0.00007796,-0.00001
 157,0.00000005,-0.00147268,-0.00035893,0.00094955,-0.00525618,-0.00808
 315,-0.01592972,0.00000670,0.00002236,0.00045371,-0.00006626,-0.000075
 51,-0.00003382,0.00001365,0.00000539,0.00000006,-0.00000275,0.00000310
 ,0.00000240,0.00000005,-0.00000209,-0.00000170,0.00000963,0.00000459,0
 .00000144,-0.00000763,0.00002169,0.00001223,0.00000374,-0.00000093,0.0
 0000034,0.00000445,-0.00000962,0.00001243,-0.00000124,-0.00000453,0.00
 000577,-0.00000703,0.00000132,0.00000030,0.00000197,0.00000241,-0.0000
 1216,-0.00000404,0.00000323,0.00000530,-0.00010632,0.00006319,-0.00008
 796,0.00026179,-0.00185186,0.00044645,0.00046993,0.00016295,-0.0000520
 0,-0.00019463,0.00077975,-0.00254798,0.00028465,-0.00023877,0.00048143
 ,0.00000097,0.00000246,0.00000059,-0.00008264,-0.00000905,0.00035290,-
 0.00000079,0.00000964,-0.00001511,0.00002882,0.00000032,-0.00002148,0.
 00000333,-0.00001573,-0.00002064,-0.00001873,-0.00000043,-0.00001836,0
 .00000237,0.00000256,0.00000137,0.00000203,0.00000282,0.00000128,-0.00
 000212,-0.00000373,0.00000212,-0.00000293,-0.00000320,0.00000089,-0.00
 000172,-0.00000455,0.00000257,0.00000190,-0.00000833,-0.00000544,0.000
 00048,0.00000115,0.00000031,0.00000082,0.00000223,0.00000126,0.0000002
 7,-0.00000161,0.00000012,-0.00002806,0.00002512,-0.00000747,-0.0000015
 3,-0.00000447,0.00000231,-0.00000424,-0.00000008,-0.00000188,0.0000028
 3,-0.00000617,0.00000948,-0.00000419,-0.00000040,-0.00000210,-0.000000
 96,-0.00000218,0.00000097,0.00000131,0.00000552,-0.00000380,0.00000074
 ,-0.00000203,0.00000300,-0.00000506,-0.00001270,-0.00000144,0.00000202
 ,-0.00000127,0.00000026,-0.00000270,-0.00000313,-0.00000820,0.00000023
 ,-0.00000230,0.00000208,0.00002002,-0.00014281,-0.00001178,-0.04334639
 ,-0.02378869,-0.02977410,-0.00006374,0.00007675,0.00003450,-0.00006338
 ,0.00014455,0.00011965,-0.00000353,0.00000339,-0.00000812,0.00009584,-
 0.00001893,0.00000146,-0.00243435,-0.00561037,-0.00830111,0.04677515,0
 .00001351,0.00001399,-0.00000913,0.00000314,-0.00000886,0.00000192,-0.
 00001440,-0.00000025,0.00001293,0.00001615,0.00001183,0.00001536,-0.00
 006287,-0.00002777,0.00008429,-0.00003545,0.00000905,-0.00001113,-0.00
 000183,-0.00001729,0.00025438,-0.00024907,0.00047088,-0.00002094,0.000
 01517,0.00002673,0.00022438,-0.00001037,-0.00004865,0.00003128,0.00008
 414,0.00001771,0.00000947,0.00092616,-0.00032627,-0.00002356,0.0010379
 9,0.00579778,0.00904588,0.00002778,0.00020872,-0.00027681,0.00005087,0
 .00007457,0.00003618,-0.00001530,-0.00000072,-0.00000658,-0.00000097,-
 0.00000772,-0.00000545,0.00000044,0.00000106,0.00000107,-0.00000802,-0
 .00000211,-0.00000023,0.00000159,-0.00001857,-0.00000496,-0.00000360,0
 .00000039,-0.00000117,-0.00000172,0.00000167,-0.00000340,0.00000122,0.
 00000061,0.00000300,0.00000678,-0.00000139,-0.00000089,-0.00000151,-0.
 00000015,0.00001025,0.00000888,0.00001240,-0.00000282,0.00010797,-0.00
 005297,0.00002495,-0.00044410,0.00089534,0.00195748,0.00030104,0.00063
 109,0.00085960,0.00059723,-0.00035623,0.00180677,-0.00005464,0.0000525
 7,-0.00026075,-0.00000068,-0.00000231,-0.00000082,0.00005122,0.0000560
 3,-0.00056817,0.00000030,-0.00001025,0.00001667,-0.00003024,-0.0000008
 8,0.00002396,-0.00000346,0.00001821,0.00002620,0.00001524,-0.00000099,
 0.00001065,-0.00000208,-0.00000277,-0.00000108,-0.00000192,-0.00000314
 ,-0.00000043,0.00000210,0.00000498,-0.00000134,0.00000269,0.00000343,-
 0.00000099,0.00000194,0.00000450,-0.00000222,-0.00000055,0.00001221,0.
 00000775,-0.00000073,-0.00000087,-0.00000007,-0.00000082,-0.00000260,-
 0.00000028,-0.00000005,-0.00000100,-0.00000232,0.00001822,-0.00002903,
 0.00001338,0.00000133,0.00000429,-0.00000250,0.00000393,-0.00000001,0.
 00000173,-0.00000156,0.00000526,-0.00000754,0.00000329,-0.00000063,0.0
 0000142,0.00000101,0.00000229,-0.00000075,0.,-0.00000296,0.00000075,-0
 .00000112,0.00000156,-0.00000360,0.00000644,0.00000747,-0.00000028,-0.
 00000255,-0.00000034,0.00000083,0.00000344,-0.00000365,-0.00000078,-0.
 00000044,0.00000079,-0.00000124,-0.00004736,0.00017531,0.00001157,-0.0
 2191817,-0.13334380,-0.11914687,-0.00034082,0.00039522,-0.00019015,-0.
 00006643,-0.00026123,0.00016642,0.00013149,-0.00007165,-0.00007221,0.0
 0001220,-0.00016512,-0.00048884,-0.00212032,-0.01334458,-0.01939336,0.
 02358708,0.14254397,-0.00001473,-0.00001127,0.00000652,0.00000562,0.00
 000787,-0.00000140,0.00000895,0.00000052,-0.00001767,-0.00001274,-0.00
 001458,-0.00002235,0.00007378,0.00003806,-0.00008970,0.00004037,-0.000
 01531,0.00001154,-0.00000993,-0.00001153,-0.00029851,0.00025962,-0.000
 30194,0.00033964,0.00001805,-0.00002881,-0.00030676,0.00002489,0.00006
 095,-0.00001128,-0.00009002,-0.00002311,0.00000841,-0.00110662,-0.0000
 2068,0.00057335,-0.00251845,-0.00795454,-0.01535622,-0.00014003,-0.000
 05452,-0.00013042,-0.00007318,-0.00009512,-0.00005398,0.00001630,0.000
 00247,-0.00000592,-0.00000101,0.00000702,0.00000874,-0.00000002,-0.000
 00310,0.00000100,0.00000911,0.00000387,-0.00000103,-0.00000569,0.00001
 652,0.00000220,0.00000416,-0.00000163,-0.00000013,0.00000747,-0.000008
 57,0.00001570,-0.00000281,-0.00000079,-0.00001282,-0.00000830,0.000002
 06,-0.00000100,0.00000318,0.00000082,-0.00001341,-0.00000838,-0.000009
 70,0.00000752,-0.00019112,0.00012419,-0.00006850,-0.00078322,-0.001841
 50,0.00034693,0.00024691,-0.00011855,0.00016875,-0.00104815,0.00060441
 ,-0.00129131,0.00000622,0.00008301,-0.00006224,0.00000165,0.00000375,0
 .00000086,0.00004821,0.00007429,0.00038001,0.00000058,0.00001323,-0.00
 002171,0.00003438,0.00000002,-0.00002473,0.00000404,-0.00002259,-0.000
 03090,-0.00002103,0.00000048,-0.00001538,0.00000352,0.00000340,0.00000
 150,0.00000217,0.00000510,0.00000070,-0.00000220,-0.00000500,0.0000028
 0,-0.00000389,-0.00000377,0.00000125,-0.00000265,-0.00000519,0.0000038
 3,-0.00000177,-0.00001624,-0.00001058,0.00000065,0.00000243,0.00000059
 ,0.00000245,0.00000376,0.00000214,-0.00000053,-0.00000025,0.00000138,-
 0.00002903,0.00004334,0.00000645,-0.00000232,-0.00000583,0.00000278,-0
 .00000569,-0.00000019,-0.00000235,0.00000305,-0.00000652,0.00001285,-0
 .00000458,-0.00000008,-0.00000257,-0.00000090,-0.00000311,0.00000156,0
 .00000138,0.00000788,-0.00000485,0.00000104,-0.00000227,0.00000424,-0.
 00000503,-0.00002316,0.00000133,0.00000520,0.00000142,-0.00000226,-0.0
 0000777,0.00001466,0.00001393,0.00000189,0.00000136,-0.00000101,-0.000
 05000,-0.00014750,-0.00049762,-0.02927943,-0.11864065,-0.19292901,-0.0
 0018986,0.00037536,-0.00001879,0.00031605,-0.00003326,-0.00032954,0.00
 018572,-0.00006768,0.00020589,0.00014308,0.00046273,0.00004594,0.00174
 828,0.00643450,0.00797673,0.03551796,0.12795595,0.21062117,0.00000360,
 -0.00000223,0.00000329,-0.00000642,-0.00000018,-0.00000173,0.00000235,
 0.00000173,0.00000034,-0.00001323,-0.00000058,-0.00000234,-0.00003146,
 -0.00004711,-0.00000332,-0.00001009,0.00001022,-0.00000278,-0.00003315
 ,-0.00001608,0.00003718,0.00008414,-0.00003293,-0.00022541,0.00000630,
 0.00000357,0.00004630,-0.00000532,-0.00002647,-0.00000777,0.00000742,0
 .00002941,-0.00000864,-0.00080358,-0.00013612,-0.00054516,-0.02150882,
 0.00265821,0.00633806,0.00004718,0.00238509,-0.00253274,0.00004395,0.0
 0004649,0.00001572,-0.00000410,0.00000423,0.00000552,0.00000160,-0.000
 00176,-0.00000155,0.00000240,0.00000103,-0.00000112,-0.00000199,0.0000
 0025,-0.00000135,0.00000066,0.00000158,0.00000033,-0.00000254,0.000000
 52,-0.00000079,-0.00000676,0.00000439,-0.00001058,-0.00000213,-0.00000
 263,0.00002442,0.00000284,-0.00000017,-0.00000014,-0.00000188,0.000001
 37,0.00000586,0.00000312,0.00000811,-0.00000981,-0.00013225,0.00003712
 ,-0.00012646,0.00015027,-0.00057438,0.00097566,0.00009717,-0.00042192,
 0.00057255,0.00029688,0.00063997,0.00098817,0.00005334,-0.00027312,0.0
 0122898,-0.00000058,-0.00000175,-0.00000050,0.00005977,-0.00000646,-0.
 00018094,-0.00000126,-0.00000645,0.00001457,-0.00000892,0.00000179,0.0
 0000407,-0.00000209,0.00000936,0.00001367,0.00000843,0.00000023,0.0000
 0469,-0.00000062,-0.00000132,-0.00000027,-0.00000122,-0.00000146,-0.00
 000047,0.00000165,-0.00000050,-0.00000242,0.00000152,0.00000107,-0.000
 00079,0.00000094,0.00000210,-0.00000108,0.00000238,0.00000895,0.000007
 03,-0.00000056,-0.00000072,-0.00000024,-0.00000025,-0.00000204,-0.0000
 0004,0.00000297,-0.00000048,0.00000058,0.00001235,-0.00000938,0.000002
 78,0.00000086,0.00000206,-0.00000108,0.00000176,-0.00000016,0.00000112
 ,0.00001064,0.00000354,-0.00000427,0.00000129,-0.00000063,0.00000037,0
 .00000063,0.00000061,-0.00000039,-0.00000153,-0.00000150,0.00000367,-0
 .00000211,-0.00000043,-0.00000134,-0.00000584,0.00000436,-0.00001449,-
 0.00000248,-0.00000151,0.00000133,0.00001240,-0.00001542,-0.00002301,-
 0.00000208,-0.00000373,0.00000363,0.00021516,-0.00012277,0.00002116,-0
 .23899339,0.03552455,0.10389493,0.00003499,-0.00068932,-0.00009434,0.0
 0052882,-0.00002105,-0.00006332,0.00025876,-0.00016121,0.00001585,-0.0
 0001922,0.00008020,-0.00005061,-0.00710857,0.00250568,0.00306325,0.004
 91098,-0.00159883,-0.00312481,0.26184494,-0.00000049,-0.00000110,-0.00
 000243,-0.00000274,-0.00000074,0.00000298,-0.00001006,-0.00000045,0.00
 001298,0.00001203,0.00000790,0.00000366,0.00000243,0.00001652,0.000013
 26,-0.00000140,0.00000313,0.00000309,-0.00000683,0.00000426,0.00004946
 ,-0.00003535,-0.00001966,0.00015743,-0.00000504,0.00002463,0.00006999,
 -0.00000512,-0.00000097,0.00001495,0.00000408,-0.00000464,0.00000679,0
 .00035878,0.00032823,0.00039312,0.01151067,-0.00300708,-0.00861700,0.0
 0033608,-0.00046281,0.00165116,0.00000015,-0.00000501,0.00000665,0.000
 00196,-0.00000682,-0.00000425,0.00000056,0.00000081,-0.00000095,-0.000
 00032,-0.00000123,-0.00000283,-0.00000628,0.00000111,-0.00000157,0.000
 00248,-0.00000932,-0.00000318,-0.00000026,-0.00000023,-0.00000006,-0.0
 0000293,0.00000458,0.00000010,0.00000300,-0.00000565,-0.00002082,0.000
 00008,-0.00000043,-0.00000003,0.00000078,-0.00000696,-0.00000442,-0.00
 001230,0.00000065,0.00000837,0.00005341,-0.00002489,0.00002008,0.00034
 757,0.00032272,0.00031898,0.00063176,-0.00065103,-0.00021097,-0.000599
 79,0.00009599,0.00037252,-0.00025116,-0.00031716,-0.00048252,0.0000002
 2,0.00000026,0.00000009,-0.00015508,0.00008849,0.00012922,0.00000071,-
 0.00000020,-0.00000021,-0.00000102,-0.00000014,0.00000198,0.00000090,0
 .00000010,-0.00000050,0.00000124,0.00000044,0.00000273,-0.00000040,-0.
 00000020,0.00000012,0.00000004,-0.00000010,0.00000008,0.00000023,-0.00
 000422,-0.00000499,0.00000015,0.00000006,0.00000026,0.00000040,0.00000
 041,-0.00000058,-0.00000520,-0.00000640,-0.00000363,0.00000015,0.00000
 024,0.00000011,-0.00000035,-0.00000029,0.00000040,0.00000118,0.0000022
 5,0.00000410,0.00002450,0.00003071,0.00002209,0.00000035,0.00000054,-0
 .00000023,0.00000092,-0.00000026,-0.00000003,-0.00001493,-0.00000241,0
 .00000503,0.00000046,-0.00000103,-0.00000004,-0.00000015,0.00000038,-0
 .00000013,-0.00000002,-0.00000216,-0.00000066,0.00000160,0.00000472,-0
 .00000371,0.00001224,-0.00000305,0.00000610,0.00000152,0.00000226,-0.0
 0000174,-0.00000716,0.00001271,0.00001810,0.00000375,0.00000607,-0.000
 00559,-0.00002238,-0.00005829,-0.00008893,0.03575814,-0.04665585,-0.01
 623084,-0.00018403,-0.00010242,-0.00002362,-0.00085392,-0.00088132,0.0
 0031401,-0.00014299,0.00022535,0.00000471,-0.00011201,0.00017090,-0.00
 010085,-0.02233199,0.00496826,0.01091994,0.01549215,-0.00334517,-0.006
 85689,-0.03979500,0.04926501,0.00001682,0.00000304,-0.00000029,-0.0000
 0801,-0.00000351,-0.00000185,0.00001442,0.00000211,0.00000363,-0.00004
 440,0.00001287,0.00000527,-0.00006546,-0.00007835,0.00000613,-0.000017
 68,0.00001165,-0.00000758,0.00002502,-0.00002917,0.00003018,-0.0000601
 5,0.00016362,-0.00056640,0.00001170,0.00001367,-0.00003857,-0.00001723
 ,-0.00003631,-0.00002460,0.00005122,0.00002380,-0.00002450,-0.00039304
 ,-0.00020580,-0.00214401,-0.02046360,0.00153545,0.01018273,-0.00199228
 ,0.00189851,-0.00260255,0.00004844,0.00006831,0.00002206,-0.00001653,0
 .00003335,0.00000486,-0.00000771,-0.00001711,-0.00001092,0.00000843,0.
 00000236,0.00000170,0.00000925,-0.00000197,0.00001044,-0.00000668,0.00
 004391,0.00001174,-0.00000334,0.00000126,-0.00000118,-0.00000356,0.000
 01509,-0.00001658,0.00000536,0.00002924,0.00008728,0.00000585,-0.00000
 165,0.00000065,-0.00000233,-0.00000015,0.00000325,0.00007633,0.0000488
 3,0.00001191,-0.00005096,0.00001750,-0.00006737,0.00030710,0.00021837,
 0.00124151,0.00046098,0.00062565,-0.00018291,-0.00046019,0.00056133,0.
 00089812,0.00066059,-0.00018041,0.00009344,-0.00000201,-0.00000460,-0.
 00000135,0.00005156,-0.00011893,-0.00027096,-0.00000111,-0.00001186,0.
 00001540,-0.00001937,0.00000060,0.00001298,-0.00000066,0.00001505,0.00
 001887,0.00001282,0.00000042,0.00000490,-0.00000119,-0.00000244,-0.000
 00269,-0.00000161,-0.00000384,-0.00000033,0.00000216,0.00000156,-0.000
 00260,0.00000226,0.00000276,-0.00000048,0.00000225,0.00000414,-0.00000
 271,0.00000750,0.00001900,0.00001269,-0.00000163,-0.00000316,-0.000000
 82,-0.00000263,-0.00000452,-0.00000204,0.00000546,0.00000076,0.0000022
 2,-0.00006833,-0.00015759,-0.00004095,0.00000197,0.00000424,-0.0000022
 6,0.00000430,-0.00000010,0.00000201,-0.00000221,-0.00000090,-0.0000103
 6,0.00000210,-0.00000191,0.00000085,0.00000091,0.00000208,-0.00000091,
 0.00000167,-0.00000322,0.00000318,0.00000107,0.00000352,-0.00000557,0.
 00000910,-0.00000326,-0.00001779,-0.00001072,-0.00001345,0.00001358,0.
 00002068,-0.00009175,-0.00011059,-0.00001969,-0.00002769,0.00002432,-0
 .00001093,-0.00004237,-0.00008336,0.10717466,-0.01800064,-0.09315211,0
 .00007518,-0.00028924,0.00023043,0.00005257,0.00052603,0.00026592,-0.0
 0015952,0.00000890,-0.00006761,0.00012353,-0.00010965,-0.00004837,0.00
 600705,-0.00251021,-0.00440528,0.01890346,-0.00210276,-0.00914231,-0.1
 1024902,0.01813955,0.09983851\\0.00000457,-0.00000431,-0.00000625,0.00
 000676,-0.00000526,-0.00000971,0.00000684,-0.00000316,-0.00001070,0.00
 000483,-0.00000019,-0.00000830,0.00000263,0.00000056,-0.00000479,0.000
 00245,-0.00000135,-0.00000382,0.00000056,0.00000350,-0.00000229,-0.000
 00054,0.00000274,-0.00000024,-0.00000231,0.00000622,0.00000166,-0.0000
 0263,0.00000977,0.00000098,-0.00000030,0.00000829,-0.00000260,0.000000
 65,-0.00000340,0.00000067,0.00000210,-0.00001109,0.00000059,0.00000232
 ,-0.00001373,0.00000115,-0.00000383,0.00000629,0.00000424,-0.00000566,
 0.00000437,0.00000814,-0.00000717,0.00000465,0.00001064,-0.00000686,0.
 00000688,0.00000943,-0.00000519,0.00000901,0.00000553,-0.00000368,0.00
 000884,0.00000295,-0.00000852,0.00000713,0.00001209,-0.00000603,0.0000
 0209,0.00000961,-0.00000173,0.00001108,-0.00000116,0.00000893,-0.00000
 848,-0.00001226,0.00000017,-0.00000029,-0.00000023,0.00000501,0.000002
 21,-0.00000951,-0.00000093,-0.00000665,0.00000410,-0.00000067,-0.00000
 881,0.00000418,-0.00000136,-0.00000776,0.00000522,0.00000342,-0.000007
 60,-0.00000294,0.00000159,-0.00000031,-0.00000270,-0.00000945,0.000010
 60,0.00001235,-0.00000168,-0.00000981,0.00000668,0.00000100,0.00000994
 ,-0.00000547,-0.00000060,0.00000878,-0.00000227,-0.00000424,0.00000985
 ,0.00000363,-0.00000297,0.00001309,0.00000020,-0.00000500,0.00001088,0
 .00000455,-0.00000857,0.00000305,0.00001369,0.00000856,-0.00000377,-0.
 00001341,0.00000446,-0.00000588,-0.00000550,0.00000875,-0.00001187,-0.
 00001070,0.00000688,0.00000175,-0.00001258,-0.00000995,0.00000560,0.00
 001511,-0.00000758,0.00000543,0.00001108,0.00000409,0.00000582,-0.0000
 0927,0.00000418,0.00000100,-0.00000760,0.00000926,-0.00000756,-0.00001
 317,0.00000036,-0.00000232,0.00000026,-0.00000119,-0.00000093,0.000002
 42,-0.00000045,0.00000324,-0.00000044,0.00001053,-0.00000868,-0.000014
 95,-0.00000771,0.00000137,0.00001284,-0.00000598,0.00000418,0.00000878
 ,-0.00000457,-0.00000106,0.00000831,-0.00000171,0.00001259,-0.00000178
 ,0.00000004,0.00000863,-0.00000333,-0.00000198,0.00001369,-0.00000171,
 0.00000386,-0.00000955,-0.00000320,0.00000375,-0.00001218,-0.00000188,
 0.00000492,-0.00000721,-0.00000571,-0.00000023,-0.00000627,0.00000275,
 -0.00000317,-0.00000538,0.00000753,-0.00000149,-0.00001078,0.00000659,
 0.00000557,-0.00001390,-0.00000441,0.00000319,-0.00001440,-0.00000009,
 0.00000372,-0.00000915,-0.00000299\\\@


 HIGGLEDY-PIGGLEDY
 NIC'LAUS COPERNICUS
 LOOKED AT THE UNIVERSE,
 SPOKE TO THE THRONG;
 GIVE UP YOUR PTOLOMY,
 RISE UP AND FOLLOW ME,
 HELIOCENTRICALLY
 PTOLEMY'S WRONG.
   -- NANCY L. STARK
 Job cpu time:       0 days  0 hours  0 minutes 57.3 seconds.
 Elapsed time:       0 days  0 hours 24 minutes 27.5 seconds.
 File lengths (MBytes):  RWF=   3048 Int=      0 D2E=      0 Chk=     85 Scr=      1
 Normal termination of Gaussian 16 at Sun Apr 12 16:17:53 2020.
