
                                 *****************
                                 * O   R   C   A *
                                 *****************

           --- An Ab Initio, DFT and Semiempirical electronic structure package ---

                  #######################################################
                  #                        -***-                        #
                  #          Department of theory and spectroscopy      #
                  #               Directorship: Frank Neese             #
                  #        Max Planck Institute fuer Kohlenforschung    #
                  #                Kaiser Wilhelm Platz 1               #
                  #                 D-45470 Muelheim/Ruhr               #
                  #                      Germany                        #
                  #                                                     #
                  #                  All rights reserved                #
                  #                        -***-                        #
                  #######################################################


                         Program Version 4.2.1 -  RELEASE  -


 With contributions from (in alphabetic order):
   Daniel Aravena         : Magnetic Suceptibility
   Michael Atanasov       : Ab Initio Ligand Field Theory (pilot matlab implementation)
   Alexander A. Auer      : GIAO ZORA, VPT2
   Ute Becker             : Parallelization
   Giovanni Bistoni       : ED, misc. LED, open-shell LED, HFLD
   Martin Brehm           : Molecular dynamics
   Dmytro Bykov           : SCF Hessian
   Vijay G. Chilkuri      : MRCI spin determinant printing, contributions to CSF-ICE
   Dipayan Datta          : RHF DLPNO-CCSD density
   Achintya Kumar Dutta   : EOM-CC, STEOM-CC
   Dmitry Ganyushin       : Spin-Orbit,Spin-Spin,Magnetic field MRCI
   Miquel Garcia          : C-PCM Hessian, Gaussian charge scheme
   Yang Guo               : DLPNO-NEVPT2, CIM, IAO-localization
   Andreas Hansen         : Spin unrestricted coupled pair/coupled cluster methods
   Benjamin Helmich-Paris : CASSCF linear response (MC-RPA)
   Lee Huntington         : MR-EOM, pCC
   Robert Izsak           : Overlap fitted RIJCOSX, COSX-SCS-MP3, EOM
   Christian Kollmar      : KDIIS, OOCD, Brueckner-CCSD(T), CCSD density
   Simone Kossmann        : Meta GGA functionals, TD-DFT gradient, OOMP2, MP2 Hessian
   Martin Krupicka        : AUTO-CI
   Lucas Lang             : DCDCAS
   Dagmar Lenk            : GEPOL surface, SMD
   Dimitrios Liakos       : Extrapolation schemes; Compound Job, initial MDCI parallelization
   Dimitrios Manganas     : Further ROCIS development; embedding schemes
   Dimitrios Pantazis     : SARC Basis sets
   Taras Petrenko         : DFT Hessian,TD-DFT gradient, ASA, ECA, R-Raman, ABS, FL, XAS/XES, NRVS
   Peter Pinski           : DLPNO-MP2, DLPNO-MP2 Gradient
   Christoph Reimann      : Effective Core Potentials
   Marius Retegan         : Local ZFS, SOC
   Christoph Riplinger    : Optimizer, TS searches, QM/MM, DLPNO-CCSD(T), (RO)-DLPNO pert. Triples
   Tobias Risthaus        : Range-separated hybrids, TD-DFT gradient, RPA, STAB
   Michael Roemelt        : Original ROCIS implementation
   Masaaki Saitow         : Open-shell DLPNO-CCSD energy and density
   Barbara Sandhoefer     : DKH picture change effects
   Avijit Sen             : IP-ROCIS
   Kantharuban Sivalingam : CASSCF convergence, NEVPT2, FIC-MRCI
   Bernardo de Souza      : ESD, SOC TD-DFT
   Georgi Stoychev        : AutoAux, RI-MP2 NMR
   Willem Van den Heuvel  : Paramagnetic NMR
   Boris Wezisla          : Elementary symmetry handling
   Frank Wennmohs         : Technical directorship


 We gratefully acknowledge several colleagues who have allowed us to
 interface, adapt or use parts of their codes:
   Stefan Grimme, W. Hujo, H. Kruse,             : VdW corrections, initial TS optimization,
                  C. Bannwarth                     DFT functionals, gCP, sTDA/sTD-DF
   Ed Valeev, F. Pavosevic, A. Kumar             : LibInt (2-el integral package), F12 methods
   Garnet Chan, S. Sharma, J. Yang, R. Olivares  : DMRG
   Ulf Ekstrom                                   : XCFun DFT Library
   Mihaly Kallay                                 : mrcc  (arbitrary order and MRCC methods)
   Andreas Klamt, Michael Diedenhofen            : otool_cosmo (COSMO solvation model)
   Jiri Pittner, Ondrej Demel                    : Mk-CCSD
   Frank Weinhold                                : gennbo (NPA and NBO analysis)
   Christopher J. Cramer and Donald G. Truhlar   : smd solvation model
   Lars Goerigk                                  : TD-DFT with DH, B97 family of functionals
   V. Asgeirsson, H. Jonsson                     : NEB implementation
   FAccTs GmbH                                   : IRC, NEB, NEB-TS, Multilevel, MM, QM/MM, CI optimization
   S Lehtola, MJT Oliveira, MAL Marques          : LibXC Library


 Your calculation uses the libint2 library for the computation of 2-el integrals
 For citations please refer to: http://libint.valeyev.net

 Your ORCA version has been built with support for libXC version: 4.2.3
 For citations please refer to: https://tddft.org/programs/libxc/

 This ORCA versions uses:
   CBLAS   interface :  Fast vector & matrix operations
   LAPACKE interface :  Fast linear algebra routines
   SCALAPACK package :  Parallel linear algebra routines


----- Orbital basis set information -----
Your calculation utilizes the basis: SVP 

================================================================================
                                        WARNINGS
                       Please study these warnings very carefully!
================================================================================


INFO   : the flag for use of LIBINT has been found!



***************************************
The coordinates will be read from file: 
***************************************


----- Orbital basis set information -----
Your calculation utilizes the basis: def2-SVP
   F. Weigend and R. Ahlrichs, Phys. Chem. Chem. Phys. 7, 3297 (2005).

================================================================================
                                        WARNINGS
                       Please study these warnings very carefully!
================================================================================


INFO   : the flag for use of LIBINT has been found!



***************************************
The coordinates will be read from file: 
***************************************


----- Orbital basis set information -----
Your calculation utilizes the basis: def2-SVP
   F. Weigend and R. Ahlrichs, Phys. Chem. Chem. Phys. 7, 3297 (2005).

----- AuxJ basis set information -----
Your calculation utilizes the auxiliary basis: def2/J
   F. Weigend, Phys. Chem. Chem. Phys. 8, 1057 (2006).

================================================================================
                                        WARNINGS
                       Please study these warnings very carefully!
================================================================================


INFO   : the flag for use of LIBINT has been found!



***************************************
The coordinates will be read from file: 
***************************************


----- Orbital basis set information -----
Your calculation utilizes the basis: def2-SVP
   F. Weigend and R. Ahlrichs, Phys. Chem. Chem. Phys. 7, 3297 (2005).

----- AuxJ basis set information -----
Your calculation utilizes the auxiliary basis: def2/J
   F. Weigend, Phys. Chem. Chem. Phys. 8, 1057 (2006).

================================================================================
                                        WARNINGS
                       Please study these warnings very carefully!
================================================================================


WARNING: Geometry Optimization
  ===> : Switching off AutoStart
         For restart on a previous wavefunction, please use MOREAD

INFO   : the flag for use of LIBINT has been found!



***************************************
The coordinates will be read from file: 
***************************************


----- Orbital basis set information -----
Your calculation utilizes the basis: def2-SVP
   F. Weigend and R. Ahlrichs, Phys. Chem. Chem. Phys. 7, 3297 (2005).

----- AuxJ basis set information -----
Your calculation utilizes the auxiliary basis: def2/J
   F. Weigend, Phys. Chem. Chem. Phys. 8, 1057 (2006).

================================================================================
                                        WARNINGS
                       Please study these warnings very carefully!
================================================================================


INFO   : the flag for use of LIBINT has been found!

================================================================================
                                       INPUT FILE
================================================================================
NAME = m.inp
|  1> ! HF SVP xyzfile
|  2> %pal nprocs 5 end
|  3> * xyz 0 1
|  4> O          0.92883        0.07034       -0.01154
|  5> H          1.89672        0.09745        0.02616
|  6> H          0.64998        0.61204        0.74196
|  7> *
|  8> $new_job
|  9> ! B3LYP def2-SVP
| 10> %pal nprocs 5 end
| 11> *xyzfile 0 1
| 12> $new_job
| 13> ! BP86 def2-SVP
| 14> %pal nprocs 5 end
| 15> *xyzfile 0 1
| 16> $new_job
| 17> ! BP86 def2-SVP Opt
| 18> %pal nprocs 5 end
| 19> *xyzfile 0 1
| 20> $new_job
| 21> ! BP86 def2-SVP Freq
| 22> %pal nprocs 5 end
| 23> *xyzfile 0 1
| 24> 
| 25>                          ****END OF INPUT****
================================================================================


                 $$$$$$$$$$$$$$$$$$$$$$$$$$$$$$$$$$$$$$$$$$$$$$ 
                 $ THERE ARE  5 JOBS TO BE PROCESSED THIS RUN $
                 $$$$$$$$$$$$$$$$$$$$$$$$$$$$$$$$$$$$$$$$$$$$$$ 




                 $$$$$$$$$$$$$$$$  JOB NUMBER  1 $$$$$$$$$$$$$$


                       ****************************
                       * Single Point Calculation *
                       ****************************

---------------------------------
CARTESIAN COORDINATES (ANGSTROEM)
---------------------------------
  O      0.928830    0.070340   -0.011540
  H      1.896720    0.097450    0.026160
  H      0.649980    0.612040    0.741960

----------------------------
CARTESIAN COORDINATES (A.U.)
----------------------------
  NO LB      ZA    FRAG     MASS         X           Y           Z
   0 O     8.0000    0    15.999    1.755234    0.132923   -0.021807
   1 H     1.0000    0     1.008    3.584281    0.184154    0.049435
   2 H     1.0000    0     1.008    1.228284    1.156588    1.402101

--------------------------------
INTERNAL COORDINATES (ANGSTROEM)
--------------------------------
 O      0   0   0     0.000000000000     0.00000000     0.00000000
 H      1   0   0     0.969003247776     0.00000000     0.00000000
 H      1   2   0     0.968998690660   103.97786501     0.00000000

---------------------------
INTERNAL COORDINATES (A.U.)
---------------------------
 O      0   0   0     0.000000000000     0.00000000     0.00000000
 H      1   0   0     1.831150761176     0.00000000     0.00000000
 H      1   2   0     1.831142149475   103.97786501     0.00000000

---------------------
BASIS SET INFORMATION
---------------------
There are 2 groups of distinct atoms

 Group   1 Type O   : 7s4p1d contracted to 3s2p1d pattern {511/31/1}
 Group   2 Type H   : 4s1p contracted to 2s1p pattern {31/1}

Atom   0O    basis set group =>   1
Atom   1H    basis set group =>   2
Atom   2H    basis set group =>   2


           ************************************************************
           *        Program running with 5 parallel MPI-processes     *
           *              working on a common directory               *
           ************************************************************
------------------------------------------------------------------------------
                           ORCA GTO INTEGRAL CALCULATION
------------------------------------------------------------------------------

                         BASIS SET STATISTICS AND STARTUP INFO

 # of primitive gaussian shells          ...   22
 # of primitive gaussian functions       ...   38
 # of contracted shells                  ...   12
 # of contracted basis functions         ...   24
 Highest angular momentum                ...    2
 Maximum contraction depth               ...    5
 Integral package used                   ... LIBINT
 Integral threshhold            Thresh   ...  1.000e-10
 Primitive cut-off              TCut     ...  1.000e-11


------------------------------ INTEGRAL EVALUATION ----------------------------


 * One electron integrals 
 Pre-screening matrix                    ... done
 Shell pair data                         ... done (   0.000 sec)



           ************************************************************
           *        Program running with 5 parallel MPI-processes     *
           *              working on a common directory               *
           ************************************************************
-------------------------------------------------------------------------------
                                 ORCA SCF
-------------------------------------------------------------------------------

------------
SCF SETTINGS
------------
Hamiltonian:
 Ab initio Hamiltonian  Method          .... Hartree-Fock(GTOs)


General Settings:
 Integral files         IntName         .... m
 Hartree-Fock type      HFTyp           .... RHF
 Total Charge           Charge          ....    0
 Multiplicity           Mult            ....    1
 Number of Electrons    NEL             ....   10
 Basis Dimension        Dim             ....   24
 Nuclear Repulsion      ENuc            ....      9.0842569383 Eh

Convergence Acceleration:
 DIIS                   CNVDIIS         .... on
   Start iteration      DIISMaxIt       ....    12
   Startup error        DIISStart       ....  0.200000
   # of expansion vecs  DIISMaxEq       ....     5
   Bias factor          DIISBfac        ....   1.050
   Max. coefficient     DIISMaxC        ....  10.000
 Newton-Raphson         CNVNR           .... off
 SOSCF                  CNVSOSCF        .... on
   Start iteration      SOSCFMaxIt      ....   150
   Startup grad/error   SOSCFStart      ....  0.003300
 Level Shifting         CNVShift        .... on
   Level shift para.    LevelShift      ....    0.2500
   Turn off err/grad.   ShiftErr        ....    0.0010
 Zerner damping         CNVZerner       .... off
 Static damping         CNVDamp         .... on
   Fraction old density DampFac         ....    0.7000
   Max. Damping (<1)    DampMax         ....    0.9800
   Min. Damping (>=0)   DampMin         ....    0.0000
   Turn off err/grad.   DampErr         ....    0.1000
 Fernandez-Rico         CNVRico         .... off

SCF Procedure:
 Maximum # iterations   MaxIter         ....   125
 SCF integral mode      SCFMode         .... Direct
   Integral package                     .... LIBINT
 Reset frequency        DirectResetFreq ....    20
 Integral Threshold     Thresh          ....  1.000e-10 Eh
 Primitive CutOff       TCut            ....  1.000e-11 Eh

Convergence Tolerance:
 Convergence Check Mode ConvCheckMode   .... Total+1el-Energy
 Convergence forced     ConvForced      .... 0
 Energy Change          TolE            ....  1.000e-06 Eh
 1-El. energy change                    ....  1.000e-03 Eh
 Orbital Gradient       TolG            ....  5.000e-05
 Orbital Rotation angle TolX            ....  5.000e-05
 DIIS Error             TolErr          ....  1.000e-06


Diagonalization of the overlap matrix:
Smallest eigenvalue                        ... 3.830e-02
Time for diagonalization                   ...    0.003 sec
Threshold for overlap eigenvalues          ... 1.000e-08
Number of eigenvalues below threshold      ... 0
Time for construction of square roots      ...    0.016 sec
Total time needed                          ...    0.019 sec

-------------------
DFT GRID GENERATION
-------------------

General Integration Accuracy     IntAcc      ...  4.340
Radial Grid Type                 RadialGrid  ... Gauss-Chebyshev
Angular Grid (max. acc.)         AngularGrid ... Lebedev-110
Angular grid pruning method      GridPruning ... 3 (G Style)
Weight generation scheme         WeightScheme... Becke
Basis function cutoff            BFCut       ...    1.0000e-10
Integration weight cutoff        WCut        ...    1.0000e-14
Grids for H and He will be reduced by one unit

# of grid points (after initial pruning)     ...   3304 (   0.0 sec)
# of grid points (after weights+screening)   ...   3274 (   0.0 sec)
nearest neighbour list constructed           ...    0.0 sec
Grid point re-assignment to atoms done       ...    0.0 sec
Grid point division into batches done        ...    0.0 sec
Reduced shell lists constructed in    0.0 sec

Total number of grid points                  ...     3274
Total number of batches                      ...       53
Average number of points per batch           ...       61
Average number of grid points per atom       ...     1091
Average number of shells per batch           ...    10.67 (88.89%)
Average number of basis functions per batch  ...    21.67 (90.28%)
Average number of large shells per batch     ...    10.42 (97.66%)
Average number of large basis fcns per batch ...    21.08 (97.31%)
Maximum spatial batch extension              ...  16.41, 18.30, 18.30 au
Average spatial batch extension              ...   1.27,  1.41,  1.35 au

Time for grid setup =    0.070 sec

------------------------------
INITIAL GUESS: MODEL POTENTIAL
------------------------------
Loading Hartree-Fock densities                     ... done
Calculating cut-offs                               ... done
Setting up the integral package                    ... done
Initializing the effective Hamiltonian             ... done
Starting the Coulomb interaction                   ... done (   0.0 sec)
Reading the grid                                   ... done
Mapping shells                                     ... done
Starting the XC term evaluation                    ... done (   0.0 sec)
Transforming the Hamiltonian                       ... done (   0.0 sec)
Diagonalizing the Hamiltonian                      ... done (   0.0 sec)
Back transforming the eigenvectors                 ... done (   0.0 sec)
Now organizing SCF variables                       ... done
                      ------------------
                      INITIAL GUESS DONE (   0.2 sec)
                      ------------------
--------------
SCF ITERATIONS
--------------
ITER       Energy         Delta-E        Max-DP      RMS-DP      [F,P]     Damp
               ***  Starting incremental Fock matrix formation  ***
  0    -75.8676166779   0.000000000000 0.06445176  0.00632788  0.3108642 0.7000
  1    -75.9039546193  -0.036337941331 0.04468293  0.00426978  0.1871053 0.7000
                               ***Turning on DIIS***
  2    -75.9233153291  -0.019360709844 0.02619690  0.00233674  0.1028917 0.7000
  3    -76.0898096129  -0.166494283748 0.04074260  0.00317837  0.0575442 0.0000
  4    -75.9414309016   0.148378711297 0.00908128  0.00069666  0.0111728 0.0000
                      *** Initiating the SOSCF procedure ***
                           *** Shutting down DIIS ***
                      *** Re-Reading the Fockian *** 
                      *** Removing any level shift *** 
ITER      Energy       Delta-E        Grad      Rot      Max-DP    RMS-DP
  5    -75.96234566  -0.0209147619  0.001370  0.001370  0.001823  0.000198
               *** Restarting incremental Fock matrix formation ***
  6    -75.96012057   0.0022250912  0.000512  0.000680  0.000567  0.000082
  7    -75.96012277  -0.0000022008  0.000280  0.000469  0.000499  0.000059
                 **** Energy Check signals convergence ****
              ***Rediagonalizing the Fockian in SOSCF/NRSCF***

               *****************************************************
               *                     SUCCESS                       *
               *           SCF CONVERGED AFTER   8 CYCLES          *
               *****************************************************


----------------
TOTAL SCF ENERGY
----------------

Total Energy       :          -75.96012321 Eh           -2066.98004 eV

Components:
Nuclear Repulsion  :            9.08425694 Eh             247.19520 eV
Electronic Energy  :          -85.04438015 Eh           -2314.17523 eV
One Electron Energy:         -122.84413964 Eh           -3342.75898 eV
Two Electron Energy:           37.79975949 Eh            1028.58375 eV

Virial components:
Potential Energy   :         -151.69260375 Eh           -4127.76560 eV
Kinetic Energy     :           75.73248054 Eh            2060.78556 eV
Virial Ratio       :            2.00300588


---------------
SCF CONVERGENCE
---------------

  Last Energy change         ...   -4.3646e-07  Tolerance :   1.0000e-06
  Last MAX-Density change    ...    8.0478e-05  Tolerance :   1.0000e-05
  Last RMS-Density change    ...    8.1797e-06  Tolerance :   1.0000e-06
  Last Orbital Gradient      ...    7.6466e-05  Tolerance :   5.0000e-05
  Last Orbital Rotation      ...    4.0248e-05  Tolerance :   5.0000e-05

             **** THE GBW FILE WAS UPDATED (m.gbw) ****
             **** DENSITY FILE WAS UPDATED (m.scfp) ****
             **** ENERGY FILE WAS UPDATED (m.en.tmp) ****
             **** THE GBW FILE WAS UPDATED (m.gbw) ****
             **** DENSITY FILE WAS UPDATED (m.scfp) ****
----------------
ORBITAL ENERGIES
----------------

  NO   OCC          E(Eh)            E(eV) 
   0   2.0000     -20.547761      -559.1330 
   1   2.0000      -1.313308       -35.7369 
   2   2.0000      -0.696324       -18.9479 
   3   2.0000      -0.567055       -15.4304 
   4   2.0000      -0.497364       -13.5340 
   5   0.0000       0.174310         4.7432 
   6   0.0000       0.253597         6.9007 
   7   0.0000       0.784386        21.3442 
   8   0.0000       0.859407        23.3856 
   9   0.0000       1.185397        32.2563 
  10   0.0000       1.201847        32.7039 
  11   0.0000       1.270639        34.5759 
  12   0.0000       1.341562        36.5058 
  13   0.0000       1.596530        43.4438 
  14   0.0000       1.659333        45.1528 
  15   0.0000       1.803550        49.0771 
  16   0.0000       2.050534        55.7979 
  17   0.0000       2.533317        68.9351 
  18   0.0000       2.577868        70.1474 
  19   0.0000       3.319219        90.3205 
  20   0.0000       3.371060        91.7312 
  21   0.0000       3.557064        96.7926 
  22   0.0000       3.884350       105.6985 
  23   0.0000       4.223961       114.9398 

                    ********************************
                    * MULLIKEN POPULATION ANALYSIS *
                    ********************************

-----------------------
MULLIKEN ATOMIC CHARGES
-----------------------
   0 O :   -0.358600
   1 H :    0.179301
   2 H :    0.179299
Sum of atomic charges:   -0.0000000

--------------------------------
MULLIKEN REDUCED ORBITAL CHARGES
--------------------------------
  0 O s       :     3.695191  s :     3.695191
      pz      :     1.594306  p :     4.651724
      px      :     1.285470
      py      :     1.771949
      dz2     :     0.002925  d :     0.011685
      dxz     :     0.000846
      dyz     :     0.003330
      dx2y2   :     0.003975
      dxy     :     0.000608
  1 H s       :     0.747223  s :     0.747223
      pz      :     0.015978  p :     0.073476
      px      :     0.040311
      py      :     0.017187
  2 H s       :     0.747225  s :     0.747225
      pz      :     0.030713  p :     0.073476
      px      :     0.017961
      py      :     0.024802


                     *******************************
                     * LOEWDIN POPULATION ANALYSIS *
                     *******************************

----------------------
LOEWDIN ATOMIC CHARGES
----------------------
   0 O :   -0.168605
   1 H :    0.084304
   2 H :    0.084301

-------------------------------
LOEWDIN REDUCED ORBITAL CHARGES
-------------------------------
  0 O s       :     3.436647  s :     3.436647
      pz      :     1.612153  p :     4.711128
      px      :     1.350448
      py      :     1.748527
      dz2     :     0.004858  d :     0.020830
      dxz     :     0.001246
      dyz     :     0.006025
      dx2y2   :     0.008010
      dxy     :     0.000691
  1 H s       :     0.737675  s :     0.737675
      pz      :     0.039879  p :     0.178021
      px      :     0.092092
      py      :     0.046050
  2 H s       :     0.737676  s :     0.737676
      pz      :     0.078015  p :     0.178023
      px      :     0.034248
      py      :     0.065760


                      *****************************
                      * MAYER POPULATION ANALYSIS *
                      *****************************

  NA   - Mulliken gross atomic population
  ZA   - Total nuclear charge
  QA   - Mulliken gross atomic charge
  VA   - Mayer's total valence
  BVA  - Mayer's bonded valence
  FA   - Mayer's free valence

  ATOM       NA         ZA         QA         VA         BVA        FA
  0 O      8.3586     8.0000    -0.3586     1.9861     1.9861    -0.0000
  1 H      0.8207     1.0000     0.1793     0.9992     0.9992    -0.0000
  2 H      0.8207     1.0000     0.1793     0.9992     0.9992    -0.0000

  Mayer bond orders larger than 0.100000
B(  0-O ,  1-H ) :   0.9931 B(  0-O ,  2-H ) :   0.9931 

-------
TIMINGS
-------

Total SCF time: 0 days 0 hours 0 min 1 sec 

Total time                  ....       1.473 sec
Sum of individual times     ....       1.177 sec  ( 79.9%)

Fock matrix formation       ....       0.933 sec  ( 63.3%)
Diagonalization             ....       0.006 sec  (  0.4%)
Density matrix formation    ....       0.000 sec  (  0.0%)
Population analysis         ....       0.007 sec  (  0.5%)
Initial guess               ....       0.104 sec  (  7.1%)
Orbital Transformation      ....       0.000 sec  (  0.0%)
Orbital Orthonormalization  ....       0.000 sec  (  0.0%)
DIIS solution               ....       0.014 sec  (  1.0%)
SOSCF solution              ....       0.042 sec  (  2.9%)

-------------------------   --------------------
FINAL SINGLE POINT ENERGY       -75.960123209503
-------------------------   --------------------


                            ***************************************
                            *     ORCA property calculations      *
                            ***************************************

                                    ---------------------
                                    Active property flags
                                    ---------------------
   (+) Dipole Moment


------------------------------------------------------------------------------
                       ORCA ELECTRIC PROPERTIES CALCULATION
------------------------------------------------------------------------------

Dipole Moment Calculation                       ... on
Quadrupole Moment Calculation                   ... off
Polarizability Calculation                      ... off
GBWName                                         ... m.gbw
Electron density file                           ... m.scfp
The origin for moment calculation is the CENTER OF MASS  = ( 1.828091,  0.193067  0.061851)

-------------
DIPOLE MOMENT
-------------
                                X             Y             Z
Electronic contribution:     -0.08450      -0.06976      -0.09703
Nuclear contribution   :      0.57353       0.47346       0.65856
                        -----------------------------------------
Total Dipole Moment    :      0.48903       0.40370       0.56154
                        -----------------------------------------
Magnitude (a.u.)       :      0.84702
Magnitude (Debye)      :      2.15295



--------------------
Rotational spectrum 
--------------------
 
Rotational constants in cm-1:    26.442391    14.345800     9.300173 
Rotational constants in MHz : 792722.924579 430076.265052 278812.185611 

 Dipole components along the rotational axes: 
x,y,z [a.u.] :     0.000008     0.847020     0.000002 
x,y,z [Debye]:     0.000020     2.152953     0.000005 

 

Timings for individual modules:

Sum of individual times         ...       63.069 sec (=   1.051 min)
GTO integral calculation        ...       24.415 sec (=   0.407 min)  38.7 %
SCF iterations                  ...       38.654 sec (=   0.644 min)  61.3 %


                 $$$$$$$$$$$$$$$$  JOB NUMBER  2 $$$$$$$$$$$$$$


                       ****************************
                       * Single Point Calculation *
                       ****************************

---------------------------------
CARTESIAN COORDINATES (ANGSTROEM)
---------------------------------
  O      0.928830    0.070340   -0.011540
  H      1.896720    0.097450    0.026160
  H      0.649980    0.612040    0.741960

----------------------------
CARTESIAN COORDINATES (A.U.)
----------------------------
  NO LB      ZA    FRAG     MASS         X           Y           Z
   0 O     8.0000    0    15.999    1.755234    0.132923   -0.021807
   1 H     1.0000    0     1.008    3.584281    0.184154    0.049435
   2 H     1.0000    0     1.008    1.228284    1.156588    1.402101

--------------------------------
INTERNAL COORDINATES (ANGSTROEM)
--------------------------------
 O      0   0   0     0.000000000000     0.00000000     0.00000000
 H      1   0   0     0.969003247776     0.00000000     0.00000000
 H      1   2   0     0.968998690660   103.97786501     0.00000000

---------------------------
INTERNAL COORDINATES (A.U.)
---------------------------
 O      0   0   0     0.000000000000     0.00000000     0.00000000
 H      1   0   0     1.831150761176     0.00000000     0.00000000
 H      1   2   0     1.831142149475   103.97786501     0.00000000

---------------------
BASIS SET INFORMATION
---------------------
There are 2 groups of distinct atoms

 Group   1 Type O   : 7s4p1d contracted to 3s2p1d pattern {511/31/1}
 Group   2 Type H   : 4s1p contracted to 2s1p pattern {31/1}

Atom   0O    basis set group =>   1
Atom   1H    basis set group =>   2
Atom   2H    basis set group =>   2


           ************************************************************
           *        Program running with 5 parallel MPI-processes     *
           *              working on a common directory               *
           ************************************************************
------------------------------------------------------------------------------
                           ORCA GTO INTEGRAL CALCULATION
------------------------------------------------------------------------------

                         BASIS SET STATISTICS AND STARTUP INFO

 # of primitive gaussian shells          ...   22
 # of primitive gaussian functions       ...   38
 # of contracted shells                  ...   12
 # of contracted basis functions         ...   24
 Highest angular momentum                ...    2
 Maximum contraction depth               ...    5
 Integral package used                   ... LIBINT
 Integral threshhold            Thresh   ...  1.000e-10
 Primitive cut-off              TCut     ...  1.000e-11


------------------------------ INTEGRAL EVALUATION ----------------------------


 * One electron integrals 
 Pre-screening matrix                    ... done
 Shell pair data                         ... done (   0.000 sec)



           ************************************************************
           *        Program running with 5 parallel MPI-processes     *
           *              working on a common directory               *
           ************************************************************
-------------------------------------------------------------------------------
                                 ORCA SCF
-------------------------------------------------------------------------------

------------
SCF SETTINGS
------------
Hamiltonian:
 Density Functional     Method          .... DFT(GTOs)
 Exchange Functional    Exchange        .... B88
   X-Alpha parameter    XAlpha          ....  0.666667
   Becke's b parameter  XBeta           ....  0.004200
 Correlation Functional Correlation     .... LYP
 LDA part of GGA corr.  LDAOpt          .... VWN-5
 Gradients option       PostSCFGGA      .... off
 Hybrid DFT is turned on
   Fraction HF Exchange ScalHFX         ....  0.200000
   Scaling of DF-GGA-X  ScalDFX         ....  0.720000
   Scaling of DF-GGA-C  ScalDFC         ....  0.810000
   Scaling of DF-LDA-C  ScalLDAC        ....  1.000000
   Perturbative correction              ....  0.000000
   Density functional embedding theory  .... OFF
   NL short-range parameter             ....  4.800000


General Settings:
 Integral files         IntName         .... m_job2
 Hartree-Fock type      HFTyp           .... RHF
 Total Charge           Charge          ....    0
 Multiplicity           Mult            ....    1
 Number of Electrons    NEL             ....   10
 Basis Dimension        Dim             ....   24
 Nuclear Repulsion      ENuc            ....      9.0842569383 Eh

Convergence Acceleration:
 DIIS                   CNVDIIS         .... on
   Start iteration      DIISMaxIt       ....    12
   Startup error        DIISStart       ....  0.200000
   # of expansion vecs  DIISMaxEq       ....     5
   Bias factor          DIISBfac        ....   1.050
   Max. coefficient     DIISMaxC        ....  10.000
 Newton-Raphson         CNVNR           .... off
 SOSCF                  CNVSOSCF        .... on
   Start iteration      SOSCFMaxIt      ....   150
   Startup grad/error   SOSCFStart      ....  0.003300
 Level Shifting         CNVShift        .... on
   Level shift para.    LevelShift      ....    0.2500
   Turn off err/grad.   ShiftErr        ....    0.0010
 Zerner damping         CNVZerner       .... off
 Static damping         CNVDamp         .... on
   Fraction old density DampFac         ....    0.7000
   Max. Damping (<1)    DampMax         ....    0.9800
   Min. Damping (>=0)   DampMin         ....    0.0000
   Turn off err/grad.   DampErr         ....    0.1000
 Fernandez-Rico         CNVRico         .... off

SCF Procedure:
 Maximum # iterations   MaxIter         ....   125
 SCF integral mode      SCFMode         .... Direct
   Integral package                     .... LIBINT
 Reset frequency        DirectResetFreq ....    20
 Integral Threshold     Thresh          ....  1.000e-10 Eh
 Primitive CutOff       TCut            ....  1.000e-11 Eh

Convergence Tolerance:
 Convergence Check Mode ConvCheckMode   .... Total+1el-Energy
 Convergence forced     ConvForced      .... 0
 Energy Change          TolE            ....  1.000e-06 Eh
 1-El. energy change                    ....  1.000e-03 Eh
 Orbital Gradient       TolG            ....  5.000e-05
 Orbital Rotation angle TolX            ....  5.000e-05
 DIIS Error             TolErr          ....  1.000e-06


Diagonalization of the overlap matrix:
Smallest eigenvalue                        ... 3.830e-02
Time for diagonalization                   ...    0.293 sec
Threshold for overlap eigenvalues          ... 1.000e-08
Number of eigenvalues below threshold      ... 0
Time for construction of square roots      ...    0.002 sec
Total time needed                          ...    0.295 sec

---------------------
INITIAL GUESS: MOREAD
---------------------
Guess MOs are being read from file: m.gbw
Input Geometry matches current geometry (good)
Input basis set matches current basis set (good)
MOs were renormalized
MOs were reorthogonalized (Cholesky)
                      ------------------
                      INITIAL GUESS DONE (   0.5 sec)
                      ------------------
-------------------
DFT GRID GENERATION
-------------------

General Integration Accuracy     IntAcc      ...  4.340
Radial Grid Type                 RadialGrid  ... Gauss-Chebyshev
Angular Grid (max. acc.)         AngularGrid ... Lebedev-110
Angular grid pruning method      GridPruning ... 3 (G Style)
Weight generation scheme         WeightScheme... Becke
Basis function cutoff            BFCut       ...    1.0000e-10
Integration weight cutoff        WCut        ...    1.0000e-14
Grids for H and He will be reduced by one unit

# of grid points (after initial pruning)     ...   3304 (   0.0 sec)
# of grid points (after weights+screening)   ...   3274 (   0.0 sec)
nearest neighbour list constructed           ...    0.0 sec
Grid point re-assignment to atoms done       ...    0.0 sec
Grid point division into batches done        ...    0.0 sec
Reduced shell lists constructed in    0.0 sec

Total number of grid points                  ...     3274
Total number of batches                      ...       53
Average number of points per batch           ...       61
Average number of grid points per atom       ...     1091
Average number of shells per batch           ...    10.67 (88.89%)
Average number of basis functions per batch  ...    21.67 (90.28%)
Average number of large shells per batch     ...    10.42 (97.66%)
Average number of large basis fcns per batch ...    21.08 (97.31%)
Maximum spatial batch extension              ...  16.41, 18.30, 18.30 au
Average spatial batch extension              ...   1.27,  1.41,  1.35 au

Time for grid setup =    0.012 sec

--------------
SCF ITERATIONS
--------------
ITER       Energy         Delta-E        Max-DP      RMS-DP      [F,P]     Damp
               ***  Starting incremental Fock matrix formation  ***
  0    -76.3173521722   0.000000000000 0.00893545  0.00112951  0.0399496 0.7000
  1    -76.3184021173  -0.001049945140 0.00569419  0.00092913  0.0302865 0.7000
                               ***Turning on DIIS***
  2    -76.3191269823  -0.000724865036 0.01546341  0.00232516  0.0221052 0.0000
                      *** Initiating the SOSCF procedure ***
                           *** Shutting down DIIS ***
                      *** Re-Reading the Fockian *** 
                      *** Removing any level shift *** 
ITER      Energy       Delta-E        Grad      Rot      Max-DP    RMS-DP
  3    -76.32084359  -0.0017166029  0.001635  0.001635  0.004104  0.000359
               *** Restarting incremental Fock matrix formation ***
  4    -76.32084827  -0.0000046841  0.001513  0.001274  0.003074  0.000294
  5    -76.32084325   0.0000050174  0.002009  0.000840  0.001676  0.000184
  6    -76.32085479  -0.0000115389  0.000022  0.000038  0.000051  0.000005
                 **** Energy Check signals convergence ****
              ***Rediagonalizing the Fockian in SOSCF/NRSCF***

               *****************************************************
               *                     SUCCESS                       *
               *           SCF CONVERGED AFTER   7 CYCLES          *
               *****************************************************

Setting up the final grid:

General Integration Accuracy     IntAcc      ...  4.670
Radial Grid Type                 RadialGrid  ... Gauss-Chebyshev
Angular Grid (max. acc.)         AngularGrid ... Lebedev-302
Angular grid pruning method      GridPruning ... 3 (G Style)
Weight generation scheme         WeightScheme... Becke
Basis function cutoff            BFCut       ...    1.0000e-10
Integration weight cutoff        WCut        ...    1.0000e-14
Grids for H and He will be reduced by one unit

# of grid points (after initial pruning)     ...  13000 (   0.0 sec)
# of grid points (after weights+screening)   ...  12894 (   0.0 sec)
nearest neighbour list constructed           ...    0.0 sec
Grid point re-assignment to atoms done       ...    0.0 sec
Grid point division into batches done        ...    0.0 sec
Reduced shell lists constructed in    0.1 sec

Total number of grid points                  ...    12894
Total number of batches                      ...      203
Average number of points per batch           ...       63
Average number of grid points per atom       ...     4298
Average number of shells per batch           ...     9.86 (82.14%)
Average number of basis functions per batch  ...    19.57 (81.55%)
Average number of large shells per batch     ...     9.05 (91.79%)
Average number of large basis fcns per batch ...    17.86 (91.24%)
Maximum spatial batch extension              ...  13.28, 15.22, 15.22 au
Average spatial batch extension              ...   0.75,  0.85,  0.84 au

Final grid set up in    0.1 sec
Final integration                            ... done (   0.0 sec)
Change in XC energy                          ...    -0.000276452
Integrated number of electrons               ...    10.000001758
Previous integrated no of electrons          ...     9.997902184

----------------
TOTAL SCF ENERGY
----------------

Total Energy       :          -76.32113125 Eh           -2076.80356 eV

Components:
Nuclear Repulsion  :            9.08425694 Eh             247.19520 eV
Electronic Energy  :          -85.40538818 Eh           -2323.99876 eV
One Electron Energy:         -122.92363370 Eh           -3344.92213 eV
Two Electron Energy:           37.51824552 Eh            1020.92336 eV

Virial components:
Potential Energy   :         -152.14920290 Eh           -4140.19029 eV
Kinetic Energy     :           75.82807166 Eh            2063.38673 eV
Virial Ratio       :            2.00650234


DFT components:
N(Alpha)           :        5.000000879155 electrons
N(Beta)            :        5.000000879155 electrons
N(Total)           :       10.000001758310 electrons
E(X)               :       -7.120868860119 Eh       
E(C)               :       -0.402125338142 Eh       
E(XC)              :       -7.522994198262 Eh       
DFET-embed. en.    :        0.000000000000 Eh       

---------------
SCF CONVERGENCE
---------------

  Last Energy change         ...   -3.3369e-09  Tolerance :   1.0000e-06
  Last MAX-Density change    ...    9.5576e-06  Tolerance :   1.0000e-05
  Last RMS-Density change    ...    9.7366e-07  Tolerance :   1.0000e-06
  Last Orbital Gradient      ...    6.5697e-06  Tolerance :   5.0000e-05
  Last Orbital Rotation      ...    6.7129e-06  Tolerance :   5.0000e-05

             **** THE GBW FILE WAS UPDATED (m_job2.gbw) ****
             **** DENSITY FILE WAS UPDATED (m_job2.scfp) ****
             **** ENERGY FILE WAS UPDATED (m_job2.en.tmp) ****
             **** THE GBW FILE WAS UPDATED (m_job2.gbw) ****
             **** DENSITY FILE WAS UPDATED (m_job2.scfp) ****
----------------
ORBITAL ENERGIES
----------------

  NO   OCC          E(Eh)            E(eV) 
   0   2.0000     -19.115295      -520.1536 
   1   2.0000      -0.974343       -26.5132 
   2   2.0000      -0.508676       -13.8418 
   3   2.0000      -0.362375        -9.8607 
   4   2.0000      -0.287349        -7.8192 
   5   0.0000       0.046636         1.2690 
   6   0.0000       0.126486         3.4418 
   7   0.0000       0.559486        15.2244 
   8   0.0000       0.618155        16.8209 
   9   0.0000       0.920544        25.0493 
  10   0.0000       0.925359        25.1803 
  11   0.0000       1.010933        27.5089 
  12   0.0000       1.097993        29.8779 
  13   0.0000       1.348083        36.6832 
  14   0.0000       1.410780        38.3893 
  15   0.0000       1.550481        42.1907 
  16   0.0000       1.782333        48.4997 
  17   0.0000       2.198753        59.8311 
  18   0.0000       2.244352        61.0719 
  19   0.0000       2.956929        80.4621 
  20   0.0000       3.000170        81.6388 
  21   0.0000       3.181501        86.5730 
  22   0.0000       3.491429        95.0066 
  23   0.0000       3.816963       103.8648 

                    ********************************
                    * MULLIKEN POPULATION ANALYSIS *
                    ********************************

-----------------------
MULLIKEN ATOMIC CHARGES
-----------------------
   0 O :   -0.297113
   1 H :    0.148482
   2 H :    0.148631
Sum of atomic charges:    0.0000000

--------------------------------
MULLIKEN REDUCED ORBITAL CHARGES
--------------------------------
  0 O s       :     3.687597  s :     3.687597
      pz      :     1.576711  p :     4.598816
      px      :     1.260618
      py      :     1.761487
      dz2     :     0.002648  d :     0.010700
      dxz     :     0.000865
      dyz     :     0.003060
      dx2y2   :     0.003489
      dxy     :     0.000638
  1 H s       :     0.781324  s :     0.781324
      pz      :     0.017308  p :     0.070194
      px      :     0.034482
      py      :     0.018404
  2 H s       :     0.781345  s :     0.781345
      pz      :     0.027908  p :     0.070025
      px      :     0.018201
      py      :     0.023916


                     *******************************
                     * LOEWDIN POPULATION ANALYSIS *
                     *******************************

----------------------
LOEWDIN ATOMIC CHARGES
----------------------
   0 O :   -0.152078
   1 H :    0.076019
   2 H :    0.076059

-------------------------------
LOEWDIN REDUCED ORBITAL CHARGES
-------------------------------
  0 O s       :     3.440788  s :     3.440788
      pz      :     1.605246  p :     4.691482
      px      :     1.342075
      py      :     1.744162
      dz2     :     0.004591  d :     0.019807
      dxz     :     0.001177
      dyz     :     0.005840
      dx2y2   :     0.007533
      dxy     :     0.000666
  1 H s       :     0.750043  s :     0.750043
      pz      :     0.040162  p :     0.173938
      px      :     0.087311
      py      :     0.046465
  2 H s       :     0.750032  s :     0.750032
      pz      :     0.075840  p :     0.173909
      px      :     0.033115
      py      :     0.064954


                      *****************************
                      * MAYER POPULATION ANALYSIS *
                      *****************************

  NA   - Mulliken gross atomic population
  ZA   - Total nuclear charge
  QA   - Mulliken gross atomic charge
  VA   - Mayer's total valence
  BVA  - Mayer's bonded valence
  FA   - Mayer's free valence

  ATOM       NA         ZA         QA         VA         BVA        FA
  0 O      8.2971     8.0000    -0.2971     2.0142     2.0142     0.0000
  1 H      0.8515     1.0000     0.1485     1.0130     1.0130     0.0000
  2 H      0.8514     1.0000     0.1486     1.0124     1.0124     0.0000

  Mayer bond orders larger than 0.100000
B(  0-O ,  1-H ) :   1.0074 B(  0-O ,  2-H ) :   1.0068 

-------
TIMINGS
-------

Total SCF time: 0 days 0 hours 0 min 2 sec 

Total time                  ....       2.415 sec
Sum of individual times     ....       1.780 sec  ( 73.7%)

Fock matrix formation       ....       1.195 sec  ( 49.5%)
  XC integration            ....       0.174 sec  ( 14.6% of F)
    Basis function eval.    ....       0.008 sec  (  4.6% of XC)
    Density eval.           ....       0.011 sec  (  6.0% of XC)
    XC-Functional eval.     ....       0.024 sec  ( 13.6% of XC)
    XC-Potential eval.      ....       0.003 sec  (  1.5% of XC)
Diagonalization             ....       0.004 sec  (  0.2%)
Density matrix formation    ....       0.000 sec  (  0.0%)
Population analysis         ....       0.006 sec  (  0.3%)
Initial guess               ....       0.487 sec  ( 20.1%)
Orbital Transformation      ....       0.000 sec  (  0.0%)
Orbital Orthonormalization  ....       0.136 sec  (  5.6%)
DIIS solution               ....       0.002 sec  (  0.1%)
SOSCF solution              ....       0.013 sec  (  0.5%)
Grid generation             ....       0.073 sec  (  3.0%)

-------------------------   --------------------
FINAL SINGLE POINT ENERGY       -76.321131246174
-------------------------   --------------------


                            ***************************************
                            *     ORCA property calculations      *
                            ***************************************

                                    ---------------------
                                    Active property flags
                                    ---------------------
   (+) Dipole Moment


------------------------------------------------------------------------------
                       ORCA ELECTRIC PROPERTIES CALCULATION
------------------------------------------------------------------------------

Dipole Moment Calculation                       ... on
Quadrupole Moment Calculation                   ... off
Polarizability Calculation                      ... off
GBWName                                         ... m_job2.gbw
Electron density file                           ... m_job2.scfp
The origin for moment calculation is the CENTER OF MASS  = ( 1.828091,  0.193067  0.061851)

-------------
DIPOLE MOMENT
-------------
                                X             Y             Z
Electronic contribution:     -0.12120      -0.10123      -0.13970
Nuclear contribution   :      0.57353       0.47346       0.65856
                        -----------------------------------------
Total Dipole Moment    :      0.45233       0.37222       0.51886
                        -----------------------------------------
Magnitude (a.u.)       :      0.78254
Magnitude (Debye)      :      1.98907



--------------------
Rotational spectrum 
--------------------
 
Rotational constants in cm-1:    26.442391    14.345800     9.300173 
Rotational constants in MHz : 792722.924579 430076.265052 278812.185611 

 Dipole components along the rotational axes: 
x,y,z [a.u.] :     0.000660     0.782542     0.000645 
x,y,z [Debye]:     0.001677     1.989064     0.001639 

 

Timings for individual modules:

Sum of individual times         ...        4.947 sec (=   0.082 min)
GTO integral calculation        ...        1.463 sec (=   0.024 min)  29.6 %
SCF iterations                  ...        3.484 sec (=   0.058 min)  70.4 %


                 $$$$$$$$$$$$$$$$  JOB NUMBER  3 $$$$$$$$$$$$$$


                       ****************************
                       * Single Point Calculation *
                       ****************************

---------------------------------
CARTESIAN COORDINATES (ANGSTROEM)
---------------------------------
  O      0.928830    0.070340   -0.011540
  H      1.896720    0.097450    0.026160
  H      0.649980    0.612040    0.741960

----------------------------
CARTESIAN COORDINATES (A.U.)
----------------------------
  NO LB      ZA    FRAG     MASS         X           Y           Z
   0 O     8.0000    0    15.999    1.755234    0.132923   -0.021807
   1 H     1.0000    0     1.008    3.584281    0.184154    0.049435
   2 H     1.0000    0     1.008    1.228284    1.156588    1.402101

--------------------------------
INTERNAL COORDINATES (ANGSTROEM)
--------------------------------
 O      0   0   0     0.000000000000     0.00000000     0.00000000
 H      1   0   0     0.969003247776     0.00000000     0.00000000
 H      1   2   0     0.968998690660   103.97786501     0.00000000

---------------------------
INTERNAL COORDINATES (A.U.)
---------------------------
 O      0   0   0     0.000000000000     0.00000000     0.00000000
 H      1   0   0     1.831150761176     0.00000000     0.00000000
 H      1   2   0     1.831142149475   103.97786501     0.00000000

---------------------
BASIS SET INFORMATION
---------------------
There are 2 groups of distinct atoms

 Group   1 Type O   : 7s4p1d contracted to 3s2p1d pattern {511/31/1}
 Group   2 Type H   : 4s1p contracted to 2s1p pattern {31/1}

Atom   0O    basis set group =>   1
Atom   1H    basis set group =>   2
Atom   2H    basis set group =>   2
---------------------------------
AUXILIARY/J BASIS SET INFORMATION
---------------------------------
There are 2 groups of distinct atoms

 Group   1 Type O   : 12s5p4d2f1g contracted to 6s4p3d1f1g pattern {711111/2111/211/2/1}
 Group   2 Type H   : 5s2p1d contracted to 3s1p1d pattern {311/2/1}

Atom   0O    basis set group =>   1
Atom   1H    basis set group =>   2
Atom   2H    basis set group =>   2


           ************************************************************
           *        Program running with 5 parallel MPI-processes     *
           *              working on a common directory               *
           ************************************************************
------------------------------------------------------------------------------
                           ORCA GTO INTEGRAL CALCULATION
                           -- RI-GTO INTEGRALS CHOSEN --
------------------------------------------------------------------------------

                         BASIS SET STATISTICS AND STARTUP INFO

Gaussian basis set:
 # of primitive gaussian shells          ...   22
 # of primitive gaussian functions       ...   38
 # of contracted shells                  ...   12
 # of contracted basis functions         ...   24
 Highest angular momentum                ...    2
 Maximum contraction depth               ...    5
Auxiliary gaussian basis set:
 # of primitive gaussian shells          ...   40
 # of primitive gaussian functions       ...  102
 # of contracted shells                  ...   25
 # of contracted aux-basis functions     ...   71
 Highest angular momentum                ...    4
 Maximum contraction depth               ...    7
Ratio of auxiliary to basis functions    ...  2.96
Integral package used                  ... LIBINT
 One Electron integrals                  ... done
 Ordering auxiliary basis shells         ... done
 Integral threshhold             Thresh  ...  1.000e-10
 Primitive cut-off               TCut    ...  1.000e-11
 Pre-screening matrix                    ... done
 Shell pair data                         ... 
 Ordering of the shell pairs             ... done (   0.000 sec) 78 of 78 pairs
 Determination of significant pairs      ... done (   0.000 sec)
 Creation of shell pair data             ... done (   0.000 sec)
 Storage of shell pair data              ... done (   0.004 sec)
 Shell pair data done in (   0.004 sec)
 Computing two index integrals           ... done
 Cholesky decomposition of the V-matrix  ... done


Timings:
 Total evaluation time                   ...   0.302 sec (  0.005 min)
 One electron matrix time                ...   0.007 sec (  0.000 min) =  2.3%
 Schwartz matrix evaluation time         ...   0.141 sec (  0.002 min) = 46.6%
 Two index repulsion integral time       ...   0.021 sec (  0.000 min) =  6.8%
 Cholesky decomposition of V             ...   0.109 sec (  0.002 min) = 35.9%
 Three index repulsion integral time     ...   0.000 sec (  0.000 min) =  0.1%



           ************************************************************
           *        Program running with 5 parallel MPI-processes     *
           *              working on a common directory               *
           ************************************************************
-------------------------------------------------------------------------------
                                 ORCA SCF
-------------------------------------------------------------------------------

------------
SCF SETTINGS
------------
Hamiltonian:
 Density Functional     Method          .... DFT(GTOs)
 Exchange Functional    Exchange        .... B88
   X-Alpha parameter    XAlpha          ....  0.666667
   Becke's b parameter  XBeta           ....  0.004200
 Correlation Functional Correlation     .... P86
 LDA part of GGA corr.  LDAOpt          .... PW91-LDA
 Gradients option       PostSCFGGA      .... off
   Density functional embedding theory  .... OFF
   NL short-range parameter             ....  4.800000
 RI-approximation to the Coulomb term is turned on
   Number of auxiliary basis functions  .... 71


General Settings:
 Integral files         IntName         .... m_job3
 Hartree-Fock type      HFTyp           .... RHF
 Total Charge           Charge          ....    0
 Multiplicity           Mult            ....    1
 Number of Electrons    NEL             ....   10
 Basis Dimension        Dim             ....   24
 Nuclear Repulsion      ENuc            ....      9.0842569383 Eh

Convergence Acceleration:
 DIIS                   CNVDIIS         .... on
   Start iteration      DIISMaxIt       ....    12
   Startup error        DIISStart       ....  0.200000
   # of expansion vecs  DIISMaxEq       ....     5
   Bias factor          DIISBfac        ....   1.050
   Max. coefficient     DIISMaxC        ....  10.000
 Newton-Raphson         CNVNR           .... off
 SOSCF                  CNVSOSCF        .... on
   Start iteration      SOSCFMaxIt      ....   150
   Startup grad/error   SOSCFStart      ....  0.003300
 Level Shifting         CNVShift        .... on
   Level shift para.    LevelShift      ....    0.2500
   Turn off err/grad.   ShiftErr        ....    0.0010
 Zerner damping         CNVZerner       .... off
 Static damping         CNVDamp         .... on
   Fraction old density DampFac         ....    0.7000
   Max. Damping (<1)    DampMax         ....    0.9800
   Min. Damping (>=0)   DampMin         ....    0.0000
   Turn off err/grad.   DampErr         ....    0.1000
 Fernandez-Rico         CNVRico         .... off

SCF Procedure:
 Maximum # iterations   MaxIter         ....   125
 SCF integral mode      SCFMode         .... Direct
   Integral package                     .... LIBINT
 Reset frequency        DirectResetFreq ....    20
 Integral Threshold     Thresh          ....  1.000e-10 Eh
 Primitive CutOff       TCut            ....  1.000e-11 Eh

Convergence Tolerance:
 Convergence Check Mode ConvCheckMode   .... Total+1el-Energy
 Convergence forced     ConvForced      .... 0
 Energy Change          TolE            ....  1.000e-06 Eh
 1-El. energy change                    ....  1.000e-03 Eh
 Orbital Gradient       TolG            ....  5.000e-05
 Orbital Rotation angle TolX            ....  5.000e-05
 DIIS Error             TolErr          ....  1.000e-06


Diagonalization of the overlap matrix:
Smallest eigenvalue                        ... 3.830e-02
Time for diagonalization                   ...    0.001 sec
Threshold for overlap eigenvalues          ... 1.000e-08
Number of eigenvalues below threshold      ... 0
Time for construction of square roots      ...    0.022 sec
Total time needed                          ...    0.022 sec

---------------------
INITIAL GUESS: MOREAD
---------------------
Guess MOs are being read from file: m_job2.gbw
Input Geometry matches current geometry (good)
Input basis set matches current basis set (good)
MOs were renormalized
MOs were reorthogonalized (Cholesky)
                      ------------------
                      INITIAL GUESS DONE (   0.0 sec)
                      ------------------
-------------------
DFT GRID GENERATION
-------------------

General Integration Accuracy     IntAcc      ...  4.340
Radial Grid Type                 RadialGrid  ... Gauss-Chebyshev
Angular Grid (max. acc.)         AngularGrid ... Lebedev-110
Angular grid pruning method      GridPruning ... 3 (G Style)
Weight generation scheme         WeightScheme... Becke
Basis function cutoff            BFCut       ...    1.0000e-10
Integration weight cutoff        WCut        ...    1.0000e-14
Grids for H and He will be reduced by one unit

# of grid points (after initial pruning)     ...   3304 (   0.0 sec)
# of grid points (after weights+screening)   ...   3274 (   0.0 sec)
nearest neighbour list constructed           ...    0.0 sec
Grid point re-assignment to atoms done       ...    0.0 sec
Grid point division into batches done        ...    0.0 sec
Reduced shell lists constructed in    0.0 sec

Total number of grid points                  ...     3274
Total number of batches                      ...       53
Average number of points per batch           ...       61
Average number of grid points per atom       ...     1091
Average number of shells per batch           ...    10.67 (88.89%)
Average number of basis functions per batch  ...    21.67 (90.28%)
Average number of large shells per batch     ...    10.42 (97.66%)
Average number of large basis fcns per batch ...    21.08 (97.31%)
Maximum spatial batch extension              ...  16.41, 18.30, 18.30 au
Average spatial batch extension              ...   1.27,  1.41,  1.35 au

Time for grid setup =    0.011 sec

--------------
SCF ITERATIONS
--------------
ITER       Energy         Delta-E        Max-DP      RMS-DP      [F,P]     Damp
               ***  Starting incremental Fock matrix formation  ***
  0    -76.3601968196   0.000000000000 0.00195901  0.00021781  0.0090067 0.7000
                      *** Initiating the SOSCF procedure ***
                      *** Re-Reading the Fockian *** 
                      *** Removing any level shift *** 
ITER      Energy       Delta-E        Grad      Rot      Max-DP    RMS-DP
  1    -76.36025089  -0.0000540669  0.000997  0.000997  0.003890  0.000519
               *** Restarting incremental Fock matrix formation ***
  2    -76.36034575  -0.0000948628  0.002000  0.002985  0.004975  0.000549
  3    -76.36031777   0.0000279833  0.003712  0.001728  0.003149  0.000350
  4    -76.36036012  -0.0000423586  0.000055  0.000043  0.000063  0.000007
                 **** Energy Check signals convergence ****
              ***Rediagonalizing the Fockian in SOSCF/NRSCF***

               *****************************************************
               *                     SUCCESS                       *
               *           SCF CONVERGED AFTER   5 CYCLES          *
               *****************************************************

Setting up the final grid:

General Integration Accuracy     IntAcc      ...  4.670
Radial Grid Type                 RadialGrid  ... Gauss-Chebyshev
Angular Grid (max. acc.)         AngularGrid ... Lebedev-302
Angular grid pruning method      GridPruning ... 3 (G Style)
Weight generation scheme         WeightScheme... Becke
Basis function cutoff            BFCut       ...    1.0000e-10
Integration weight cutoff        WCut        ...    1.0000e-14
Grids for H and He will be reduced by one unit

# of grid points (after initial pruning)     ...  13000 (   0.0 sec)
# of grid points (after weights+screening)   ...  12894 (   0.0 sec)
nearest neighbour list constructed           ...    0.0 sec
Grid point re-assignment to atoms done       ...    0.0 sec
Grid point division into batches done        ...    0.0 sec
Reduced shell lists constructed in    0.1 sec

Total number of grid points                  ...    12894
Total number of batches                      ...      203
Average number of points per batch           ...       63
Average number of grid points per atom       ...     4298
Average number of shells per batch           ...     9.86 (82.14%)
Average number of basis functions per batch  ...    19.57 (81.55%)
Average number of large shells per batch     ...     9.05 (91.79%)
Average number of large basis fcns per batch ...    17.86 (91.24%)
Maximum spatial batch extension              ...  13.28, 15.22, 15.22 au
Average spatial batch extension              ...   0.75,  0.85,  0.84 au

Final grid set up in    0.1 sec
Final integration                            ... done (   0.0 sec)
Change in XC energy                          ...    -0.000283462
Integrated number of electrons               ...    10.000001838
Previous integrated no of electrons          ...     9.997878547

----------------
TOTAL SCF ENERGY
----------------

Total Energy       :          -76.36064360 Eh           -2077.87875 eV

Components:
Nuclear Repulsion  :            9.08425694 Eh             247.19520 eV
Electronic Energy  :          -85.44490054 Eh           -2325.07395 eV
One Electron Energy:         -122.89114536 Eh           -3344.03807 eV
Two Electron Energy:           37.44624483 Eh            1018.96412 eV

Virial components:
Potential Energy   :         -152.16211639 Eh           -4140.54169 eV
Kinetic Energy     :           75.80147280 Eh            2062.66294 eV
Virial Ratio       :            2.00737678


DFT components:
N(Alpha)           :        5.000000918919 electrons
N(Beta)            :        5.000000918919 electrons
N(Total)           :       10.000001837839 electrons
E(X)               :       -8.983723930267 Eh       
E(C)               :       -0.363946553897 Eh       
E(XC)              :       -9.347670484163 Eh       
DFET-embed. en.    :        0.000000000000 Eh       

---------------
SCF CONVERGENCE
---------------

  Last Energy change         ...   -1.0675e-08  Tolerance :   1.0000e-06
  Last MAX-Density change    ...    1.8872e-05  Tolerance :   1.0000e-05
  Last RMS-Density change    ...    2.1087e-06  Tolerance :   1.0000e-06
  Last Orbital Gradient      ...    2.5936e-05  Tolerance :   5.0000e-05
  Last Orbital Rotation      ...    1.2731e-05  Tolerance :   5.0000e-05

             **** THE GBW FILE WAS UPDATED (m_job3.gbw) ****
             **** DENSITY FILE WAS UPDATED (m_job3.scfp) ****
             **** ENERGY FILE WAS UPDATED (m_job3.en.tmp) ****
             **** THE GBW FILE WAS UPDATED (m_job3.gbw) ****
             **** DENSITY FILE WAS UPDATED (m_job3.scfp) ****
----------------
ORBITAL ENERGIES
----------------

  NO   OCC          E(Eh)            E(eV) 
   0   2.0000     -18.759054      -510.4598 
   1   2.0000      -0.891464       -24.2580 
   2   2.0000      -0.460036       -12.5182 
   3   2.0000      -0.309828        -8.4309 
   4   2.0000      -0.232332        -6.3221 
   5   0.0000       0.030916         0.8413 
   6   0.0000       0.108467         2.9515 
   7   0.0000       0.515587        14.0298 
   8   0.0000       0.570081        15.5127 
   9   0.0000       0.861524        23.4433 
  10   0.0000       0.864987        23.5375 
  11   0.0000       0.955630        26.0040 
  12   0.0000       1.039870        28.2963 
  13   0.0000       1.282124        34.8884 
  14   0.0000       1.347964        36.6800 
  15   0.0000       1.484500        40.3953 
  16   0.0000       1.713069        46.6150 
  17   0.0000       2.117681        57.6250 
  18   0.0000       2.162633        58.8482 
  19   0.0000       2.862993        77.9060 
  20   0.0000       2.903464        79.0073 
  21   0.0000       3.084038        83.9209 
  22   0.0000       3.394512        92.3694 
  23   0.0000       3.717409       101.1558 

                    ********************************
                    * MULLIKEN POPULATION ANALYSIS *
                    ********************************

-----------------------
MULLIKEN ATOMIC CHARGES
-----------------------
   0 O :   -0.296799
   1 H :    0.148443
   2 H :    0.148356
Sum of atomic charges:    0.0000000

--------------------------------
MULLIKEN REDUCED ORBITAL CHARGES
--------------------------------
  0 O s       :     3.692780  s :     3.692780
      pz      :     1.574157  p :     4.593636
      px      :     1.260012
      py      :     1.759466
      dz2     :     0.002550  d :     0.010384
      dxz     :     0.000872
      dyz     :     0.002979
      dx2y2   :     0.003333
      dxy     :     0.000649
  1 H s       :     0.781419  s :     0.781419
      pz      :     0.018025  p :     0.070139
      px      :     0.032932
      py      :     0.019181
  2 H s       :     0.781718  s :     0.781718
      pz      :     0.027406  p :     0.069926
      px      :     0.018443
      py      :     0.024078


                     *******************************
                     * LOEWDIN POPULATION ANALYSIS *
                     *******************************

----------------------
LOEWDIN ATOMIC CHARGES
----------------------
   0 O :   -0.148771
   1 H :    0.074406
   2 H :    0.074365

-------------------------------
LOEWDIN REDUCED ORBITAL CHARGES
-------------------------------
  0 O s       :     3.442949  s :     3.442949
      pz      :     1.603049  p :     4.686463
      px      :     1.341175
      py      :     1.742239
      dz2     :     0.004480  d :     0.019358
      dxz     :     0.001151
      dyz     :     0.005737
      dx2y2   :     0.007333
      dxy     :     0.000657
  1 H s       :     0.750872  s :     0.750872
      pz      :     0.040753  p :     0.174722
      px      :     0.086782
      py      :     0.047187
  2 H s       :     0.750962  s :     0.750962
      pz      :     0.076015  p :     0.174673
      px      :     0.033206
      py      :     0.065452


                      *****************************
                      * MAYER POPULATION ANALYSIS *
                      *****************************

  NA   - Mulliken gross atomic population
  ZA   - Total nuclear charge
  QA   - Mulliken gross atomic charge
  VA   - Mayer's total valence
  BVA  - Mayer's bonded valence
  FA   - Mayer's free valence

  ATOM       NA         ZA         QA         VA         BVA        FA
  0 O      8.2968     8.0000    -0.2968     2.0184     2.0184     0.0000
  1 H      0.8516     1.0000     0.1484     1.0163     1.0163     0.0000
  2 H      0.8516     1.0000     0.1484     1.0156     1.0156     0.0000

  Mayer bond orders larger than 0.100000
B(  0-O ,  1-H ) :   1.0095 B(  0-O ,  2-H ) :   1.0088 

-------
TIMINGS
-------

Total SCF time: 0 days 0 hours 0 min 1 sec 

Total time                  ....       1.176 sec
Sum of individual times     ....       1.000 sec  ( 85.0%)

Fock matrix formation       ....       0.902 sec  ( 76.7%)
  Split-RI-J                ....       0.698 sec  ( 77.4% of F)
  XC integration            ....       0.087 sec  (  9.6% of F)
    Basis function eval.    ....       0.007 sec  (  8.1% of XC)
    Density eval.           ....       0.009 sec  ( 10.2% of XC)
    XC-Functional eval.     ....       0.011 sec  ( 12.9% of XC)
    XC-Potential eval.      ....       0.002 sec  (  2.5% of XC)
Diagonalization             ....       0.003 sec  (  0.2%)
Density matrix formation    ....       0.006 sec  (  0.5%)
Population analysis         ....       0.006 sec  (  0.5%)
Initial guess               ....       0.001 sec  (  0.1%)
Orbital Transformation      ....       0.000 sec  (  0.0%)
Orbital Orthonormalization  ....       0.000 sec  (  0.0%)
DIIS solution               ....       0.000 sec  (  0.0%)
SOSCF solution              ....       0.008 sec  (  0.7%)
Grid generation             ....       0.074 sec  (  6.3%)

-------------------------   --------------------
FINAL SINGLE POINT ENERGY       -76.360643597605
-------------------------   --------------------


                            ***************************************
                            *     ORCA property calculations      *
                            ***************************************

                                    ---------------------
                                    Active property flags
                                    ---------------------
   (+) Dipole Moment


------------------------------------------------------------------------------
                       ORCA ELECTRIC PROPERTIES CALCULATION
------------------------------------------------------------------------------

Dipole Moment Calculation                       ... on
Quadrupole Moment Calculation                   ... off
Polarizability Calculation                      ... off
GBWName                                         ... m_job3.gbw
Electron density file                           ... m_job3.scfp
The origin for moment calculation is the CENTER OF MASS  = ( 1.828091,  0.193067  0.061851)

-------------
DIPOLE MOMENT
-------------
                                X             Y             Z
Electronic contribution:     -0.12842      -0.10770      -0.14848
Nuclear contribution   :      0.57353       0.47346       0.65856
                        -----------------------------------------
Total Dipole Moment    :      0.44511       0.36576       0.51009
                        -----------------------------------------
Magnitude (a.u.)       :      0.76948
Magnitude (Debye)      :      1.95585



--------------------
Rotational spectrum 
--------------------
 
Rotational constants in cm-1:    26.442391    14.345800     9.300173 
Rotational constants in MHz : 792722.924579 430076.265052 278812.185611 

 Dipole components along the rotational axes: 
x,y,z [a.u.] :     0.001052     0.769475     0.000775 
x,y,z [Debye]:     0.002675     1.955849     0.001969 

 

Timings for individual modules:

Sum of individual times         ...        3.281 sec (=   0.055 min)
GTO integral calculation        ...        1.254 sec (=   0.021 min)  38.2 %
SCF iterations                  ...        2.027 sec (=   0.034 min)  61.8 %


                 $$$$$$$$$$$$$$$$  JOB NUMBER  4 $$$$$$$$$$$$$$


                       *****************************
                       * Geometry Optimization Run *
                       *****************************

Geometry optimization settings:
Update method            Update   .... BFGS
Choice of coordinates    CoordSys .... Z-matrix Internals
Initial Hessian          InHess   .... Almoef's Model

Convergence Tolerances:
Energy Change            TolE     ....  5.0000e-06 Eh
Max. Gradient            TolMAXG  ....  3.0000e-04 Eh/bohr
RMS Gradient             TolRMSG  ....  1.0000e-04 Eh/bohr
Max. Displacement        TolMAXD  ....  4.0000e-03 bohr
RMS Displacement         TolRMSD  ....  2.0000e-03 bohr
Strict Convergence                ....  False
------------------------------------------------------------------------------
                        ORCA OPTIMIZATION COORDINATE SETUP
------------------------------------------------------------------------------

The optimization will be done in new redundant internal coordinates
Making redundant internal coordinates   ...  (new redundants) done
Evaluating the initial hessian          ...  (Almloef) done
Evaluating the coordinates              ...  done
Calculating the B-matrix                .... done
Calculating the G-matrix                .... done
Diagonalizing the G-matrix              .... done
The first mode is                       ....    0
The number of degrees of freedom        ....    3

    -----------------------------------------------------------------
                    Redundant Internal Coordinates


    -----------------------------------------------------------------
         Definition                    Initial Value    Approx d2E/dq
    -----------------------------------------------------------------
      1. B(H   1,O   0)                  0.9690         0.503040   
      2. B(H   2,O   0)                  0.9690         0.503049   
      3. A(H   1,O   0,H   2)          103.9779         0.318375   
    -----------------------------------------------------------------

Number of atoms                         .... 3
Number of degrees of freedom            .... 3

         *************************************************************
         *                GEOMETRY OPTIMIZATION CYCLE   1            *
         *************************************************************
---------------------------------
CARTESIAN COORDINATES (ANGSTROEM)
---------------------------------
  O      0.928830    0.070340   -0.011540
  H      1.896720    0.097450    0.026160
  H      0.649980    0.612040    0.741960

----------------------------
CARTESIAN COORDINATES (A.U.)
----------------------------
  NO LB      ZA    FRAG     MASS         X           Y           Z
   0 O     8.0000    0    15.999    1.755234    0.132923   -0.021807
   1 H     1.0000    0     1.008    3.584281    0.184154    0.049435
   2 H     1.0000    0     1.008    1.228284    1.156588    1.402101

--------------------------------
INTERNAL COORDINATES (ANGSTROEM)
--------------------------------
 O      0   0   0     0.000000000000     0.00000000     0.00000000
 H      1   0   0     0.969003247776     0.00000000     0.00000000
 H      1   2   0     0.968998690660   103.97786501     0.00000000

---------------------------
INTERNAL COORDINATES (A.U.)
---------------------------
 O      0   0   0     0.000000000000     0.00000000     0.00000000
 H      1   0   0     1.831150761176     0.00000000     0.00000000
 H      1   2   0     1.831142149475   103.97786501     0.00000000

---------------------
BASIS SET INFORMATION
---------------------
There are 2 groups of distinct atoms

 Group   1 Type O   : 7s4p1d contracted to 3s2p1d pattern {511/31/1}
 Group   2 Type H   : 4s1p contracted to 2s1p pattern {31/1}

Atom   0O    basis set group =>   1
Atom   1H    basis set group =>   2
Atom   2H    basis set group =>   2
---------------------------------
AUXILIARY/J BASIS SET INFORMATION
---------------------------------
There are 2 groups of distinct atoms

 Group   1 Type O   : 12s5p4d2f1g contracted to 6s4p3d1f1g pattern {711111/2111/211/2/1}
 Group   2 Type H   : 5s2p1d contracted to 3s1p1d pattern {311/2/1}

Atom   0O    basis set group =>   1
Atom   1H    basis set group =>   2
Atom   2H    basis set group =>   2


           ************************************************************
           *        Program running with 5 parallel MPI-processes     *
           *              working on a common directory               *
           ************************************************************
------------------------------------------------------------------------------
                           ORCA GTO INTEGRAL CALCULATION
                           -- RI-GTO INTEGRALS CHOSEN --
------------------------------------------------------------------------------

                         BASIS SET STATISTICS AND STARTUP INFO

Gaussian basis set:
 # of primitive gaussian shells          ...   22
 # of primitive gaussian functions       ...   38
 # of contracted shells                  ...   12
 # of contracted basis functions         ...   24
 Highest angular momentum                ...    2
 Maximum contraction depth               ...    5
Auxiliary gaussian basis set:
 # of primitive gaussian shells          ...   40
 # of primitive gaussian functions       ...  102
 # of contracted shells                  ...   25
 # of contracted aux-basis functions     ...   71
 Highest angular momentum                ...    4
 Maximum contraction depth               ...    7
Ratio of auxiliary to basis functions    ...  2.96
Integral package used                  ... LIBINT
 One Electron integrals                  ... done
 Ordering auxiliary basis shells         ... done
 Integral threshhold             Thresh  ...  2.500e-11
 Primitive cut-off               TCut    ...  2.500e-12
 Pre-screening matrix                    ... done
 Shell pair data                         ... 
 Ordering of the shell pairs             ... done (   0.000 sec) 78 of 78 pairs
 Determination of significant pairs      ... done (   0.000 sec)
 Creation of shell pair data             ... done (   0.000 sec)
 Storage of shell pair data              ... done (   0.001 sec)
 Shell pair data done in (   0.001 sec)
 Computing two index integrals           ... done
 Cholesky decomposition of the V-matrix  ... done


Timings:
 Total evaluation time                   ...   0.183 sec (  0.003 min)
 One electron matrix time                ...   0.008 sec (  0.000 min) =  4.1%
 Schwartz matrix evaluation time         ...   0.136 sec (  0.002 min) = 74.2%
 Two index repulsion integral time       ...   0.002 sec (  0.000 min) =  0.9%
 Cholesky decomposition of V             ...   0.016 sec (  0.000 min) =  8.6%
 Three index repulsion integral time     ...   0.000 sec (  0.000 min) =  0.0%



           ************************************************************
           *        Program running with 5 parallel MPI-processes     *
           *              working on a common directory               *
[...]
Kinetic Energy     :           75.78812831 Eh            2062.29982 eV
Virial Ratio       :            2.00755581


DFT components:
N(Alpha)           :        5.000001092442 electrons
N(Beta)            :        5.000001092442 electrons
N(Total)           :       10.000002184883 electrons
E(X)               :       -8.978355912554 Eh       
E(C)               :       -0.363675769800 Eh       
E(XC)              :       -9.342031682354 Eh       
DFET-embed. en.    :        0.000000000000 Eh       

---------------
SCF CONVERGENCE
---------------

  Last Energy change         ...   -5.6843e-12  Tolerance :   1.0000e-08
  Last MAX-Density change    ...    9.6452e-07  Tolerance :   1.0000e-07
  Last RMS-Density change    ...    1.0138e-07  Tolerance :   5.0000e-09
  Last Orbital Gradient      ...    4.1605e-07  Tolerance :   1.0000e-05
  Last Orbital Rotation      ...    4.7890e-07  Tolerance :   1.0000e-05

             **** THE GBW FILE WAS UPDATED (m_job5.gbw) ****
             **** DENSITY FILE WAS UPDATED (m_job5.scfp) ****
             **** ENERGY FILE WAS UPDATED (m_job5.en.tmp) ****
             **** THE GBW FILE WAS UPDATED (m_job5.gbw) ****
             **** DENSITY FILE WAS UPDATED (m_job5.scfp) ****
----------------
ORBITAL ENERGIES
----------------

  NO   OCC          E(Eh)            E(eV) 
   0   2.0000     -18.760809      -510.5076 
   1   2.0000      -0.890468       -24.2309 
   2   2.0000      -0.454969       -12.3803 
   3   2.0000      -0.313194        -8.5224 
   4   2.0000      -0.232396        -6.3238 
   5   0.0000       0.028850         0.7850 
   6   0.0000       0.106058         2.8860 
   7   0.0000       0.507376        13.8064 
   8   0.0000       0.570654        15.5283 
   9   0.0000       0.862553        23.4713 
  10   0.0000       0.864380        23.5210 
  11   0.0000       0.956320        26.0228 
  12   0.0000       1.043128        28.3849 
  13   0.0000       1.286543        35.0086 
  14   0.0000       1.326773        36.1033 
  15   0.0000       1.474332        40.1186 
  16   0.0000       1.717595        46.7381 
  17   0.0000       2.100973        57.1704 
  18   0.0000       2.151431        58.5434 
  19   0.0000       2.866146        77.9918 
  20   0.0000       2.890303        78.6491 
  21   0.0000       3.079233        83.7902 
  22   0.0000       3.377102        91.8956 
  23   0.0000       3.720507       101.2401 

                    ********************************
                    * MULLIKEN POPULATION ANALYSIS *
                    ********************************

-----------------------
MULLIKEN ATOMIC CHARGES
-----------------------
   0 O :   -0.297296
   1 H :    0.148692
   2 H :    0.148604
Sum of atomic charges:   -0.0000000

--------------------------------
MULLIKEN REDUCED ORBITAL CHARGES
--------------------------------
  0 O s       :     3.702530  s :     3.702530
      pz      :     1.568540  p :     4.584364
      px      :     1.259050
      py      :     1.756775
      dz2     :     0.002549  d :     0.010402
      dxz     :     0.000906
      dyz     :     0.002979
      dx2y2   :     0.003301
      dxy     :     0.000667
  1 H s       :     0.781847  s :     0.781847
      pz      :     0.017776  p :     0.069461
      px      :     0.032755
      py      :     0.018930
  2 H s       :     0.782136  s :     0.782136
      pz      :     0.027293  p :     0.069259
      px      :     0.018068
      py      :     0.023899


                     *******************************
                     * LOEWDIN POPULATION ANALYSIS *
                     *******************************

----------------------
LOEWDIN ATOMIC CHARGES
----------------------
   0 O :   -0.154642
   1 H :    0.077345
   2 H :    0.077297

-------------------------------
LOEWDIN REDUCED ORBITAL CHARGES
-------------------------------
  0 O s       :     3.455028  s :     3.455028
      pz      :     1.599377  p :     4.680389
      px      :     1.339509
      py      :     1.741503
      dz2     :     0.004440  d :     0.019225
      dxz     :     0.001142
      dyz     :     0.005766
      dx2y2   :     0.007225
      dxy     :     0.000653
  1 H s       :     0.750762  s :     0.750762
      pz      :     0.040039  p :     0.171893
      px      :     0.085634
      py      :     0.046220
  2 H s       :     0.750844  s :     0.750844
      pz      :     0.075141  p :     0.171859
      px      :     0.032308
      py      :     0.064410


                      *****************************
                      * MAYER POPULATION ANALYSIS *
                      *****************************

  NA   - Mulliken gross atomic population
  ZA   - Total nuclear charge
  QA   - Mulliken gross atomic charge
  VA   - Mayer's total valence
  BVA  - Mayer's bonded valence
  FA   - Mayer's free valence

  ATOM       NA         ZA         QA         VA         BVA        FA
  0 O      8.2973     8.0000    -0.2973     2.0163     2.0163    -0.0000
  1 H      0.8513     1.0000     0.1487     1.0148     1.0148     0.0000
  2 H      0.8514     1.0000     0.1486     1.0141     1.0141     0.0000

  Mayer bond orders larger than 0.100000
B(  0-O ,  1-H ) :   1.0085 B(  0-O ,  2-H ) :   1.0078 

-------
TIMINGS
-------

Total SCF time: 0 days 0 hours 0 min 0 sec 

Total time                  ....       0.787 sec
Sum of individual times     ....       0.654 sec  ( 83.1%)

Fock matrix formation       ....       0.511 sec  ( 65.0%)
  Split-RI-J                ....       0.399 sec  ( 78.0% of F)
  XC integration            ....       0.032 sec  (  6.3% of F)
    Basis function eval.    ....       0.004 sec  ( 11.5% of XC)
    Density eval.           ....       0.004 sec  ( 12.6% of XC)
    XC-Functional eval.     ....       0.005 sec  ( 16.6% of XC)
    XC-Potential eval.      ....       0.001 sec  (  4.1% of XC)
Diagonalization             ....       0.001 sec  (  0.1%)
Density matrix formation    ....       0.013 sec  (  1.6%)
Population analysis         ....       0.006 sec  (  0.8%)
Initial guess               ....       0.035 sec  (  4.5%)
Orbital Transformation      ....       0.000 sec  (  0.0%)
Orbital Orthonormalization  ....       0.025 sec  (  3.2%)
DIIS solution               ....       0.000 sec  (  0.0%)
SOSCF solution              ....       0.001 sec  (  0.2%)
Grid generation             ....       0.086 sec  ( 10.9%)

-------------------------   --------------------
FINAL SINGLE POINT ENERGY       -76.360769175343
-------------------------   --------------------


                            ***************************************
                            *     ORCA property calculations      *
                            ***************************************

                                    ---------------------
                                    Active property flags
                                    ---------------------
   (+) Dipole Moment


------------------------------------------------------------------------------
                       ORCA ELECTRIC PROPERTIES CALCULATION
------------------------------------------------------------------------------

Dipole Moment Calculation                       ... on
Quadrupole Moment Calculation                   ... off
Polarizability Calculation                      ... off
GBWName                                         ... m_job5.gbw
Electron density file                           ... m_job5.scfp
The origin for moment calculation is the CENTER OF MASS  = ( 1.818430,  0.185105  0.050776)

-------------
DIPOLE MOMENT
-------------
                                X             Y             Z
Electronic contribution:     -0.13809      -0.11565      -0.15953
Nuclear contribution   :      0.58887       0.48610       0.67615
                        -----------------------------------------
Total Dipole Moment    :      0.45078       0.37045       0.51662
                        -----------------------------------------
Magnitude (a.u.)       :      0.77932
Magnitude (Debye)      :      1.98087



--------------------
Rotational spectrum 
--------------------
 
Rotational constants in cm-1:    25.083956    14.521603     9.197175 
Rotational constants in MHz : 751998.079641 435346.716096 275724.368909 

 Dipole components along the rotational axes: 
x,y,z [a.u.] :     0.001067     0.779317     0.000780 
x,y,z [Debye]:     0.002712     1.980866     0.001982 

 


           ************************************************************
           *        Program running with 5 parallel MPI-processes     *
           *              working on a common directory               *
           ************************************************************

-------------------------------------------------------------------------------
                               ORCA SCF HESSIAN
-------------------------------------------------------------------------------

Hessian of the Kohn-Sham DFT energy:
Kohn-Sham wavefunction type                      ... RKS
Hartree-Fock exchange scaling                    ...    0.000
Number of operators                              ...    1
Number of atoms                                  ...    3
Basis set dimensions                             ...   24
Integral neglect threshold                       ... 2.5e-11
Integral primitive cutoff                        ... 2.5e-12

Setting up DFT Hessian calculations              ... 
Electron density on the grid                     ... found on disk
Electron density on the final grid               ... found on disk
Building xc-kernel on the grid                   ... done   (      0.0 sec)
Building xc-kernel on the final grid             ... done   (      0.0 sec)
                                                     done   (      0.0 sec)

Nuclear repulsion Hessian                        ... done   (      0.0 sec)

----------------------------------------------
Forming right-hand sides of CP-SCF equations     ...
----------------------------------------------
One electron integral derivatives                ... done   (      0.1 sec)
Transforming the overlap derivative matrices     ... done   (      0.1 sec)
Making the Q(x) pseudodensities                  ... done   (      0.0 sec)
Adding the E*S(x)*S(y) terms to the Hessian      ... done   (      0.0 sec)
Calculating energy weighted overlap derivatives  ... done   (      0.0 sec)
Two electron integral derivatives (RI)           ... done   (      0.3 sec)
Exchange-correlation integral derivatives        ... done   (      0.1 sec)
tr(F(y)Q(x)) contribution to the Hessian         ... done   (      0.0 sec)
Response fock operator R(S(x)) (RI)              ... done   (      0.2 sec)
XC Response fock operator R(S(x))                ... done   (      0.0 sec)
tr(F(y)S(x)) contribution to the Hessian         ... done   (      0.0 sec)
Transforming and finalizing RHSs                 ... done   (      0.0 sec)

----------------------------------------------
Solving the CP-SCF equations (RI)                ...
----------------------------------------------
     CP-SCF ITERATION   0: 
     CP-SCF ITERATION   1:      0.000852175117
     CP-SCF ITERATION   2:      0.000007771787
     CP-SCF ITERATION   3:      0.000000144042
     CP-SCF ITERATION   4:      0.000000001300

                                                 ... done   (      0.6 sec)
Forming perturbed density Hessian contributions  ... done   (      0.0 sec)
Making the perturbed densities                   ... done   (      0.0 sec)
2nd integral derivative contribs (RI)            ... done   (      0.2 sec)
Exchange-correlation Hessian                     ... done   (      0.2 sec)
Dipol derivatives                                ... done   (      0.6 sec)

Total SCF Hessian time: 0 days 0 hours 0 min 2 sec 

Writing the Hessian file to the disk             ... done


Maximum memory used throughout the entire calculation: 131.3 MB

-----------------------
VIBRATIONAL FREQUENCIES
-----------------------

Scaling factor for frequencies =  1.000000000  (already applied!)

   0:         0.00 cm**-1
   1:         0.00 cm**-1
   2:         0.00 cm**-1
   3:         0.00 cm**-1
   4:         0.00 cm**-1
   5:         0.00 cm**-1
   6:      1608.05 cm**-1
   7:      3679.43 cm**-1
   8:      3778.64 cm**-1


------------
NORMAL MODES
------------

These modes are the Cartesian displacements weighted by the diagonal matrix
M(i,i)=1/sqrt(m[i]) where m[i] is the mass of the displaced atom
Thus, these vectors are normalized but *not* orthogonal

                  0          1          2          3          4          5    
      0       1.000000   2.000000   3.000000   4.000000   5.000000   6.000000
      1       0.200000   0.000000   0.000000   0.000000   0.000000   0.000000
      2       0.030000   0.000000   0.000000   0.000000   0.000000   0.000000
      3       0.004000   0.000000   0.000000   0.000000   0.000000   0.000000
      4       0.000500   0.000000   0.000000   0.000000   0.000000   0.000000
      5       0.000060   0.000000   0.000000   0.000000   0.000000   0.000000
      6       0.000007   0.000000   0.000000   0.000000   0.000000   0.000000
      7       0.0000008  0.000000   0.000000   0.000000   0.000000   0.000000
      8       0.000000   0.000000   0.000000   0.000000   0.000000   0.000000
                   6          7          8    
      0       0.040476  -0.029378  -0.056394
      1       0.033402  -0.024094   0.023369
      2       0.046461  -0.033515   0.032506
      3       0.032909   0.707751   0.702340
      4      -0.411287  -0.003967   0.026178
      5      -0.572095  -0.005526   0.036407
      6      -0.675346  -0.241458   0.192748
      7      -0.118865   0.386393  -0.397091
      8      -0.165333   0.537470  -0.552350


-----------
IR SPECTRUM
-----------

 Mode    freq (cm**-1)   T**2         TX         TY         TZ
-------------------------------------------------------------------
   6:      1608.05   48.268632  ( -4.013643  -3.310788  -4.604126)
   7:      3679.43    2.393999  (  0.916494   0.729805   1.010655)
   8:      3778.64   20.246666  (  3.678587  -1.513083  -2.103626)

The first frequency considered to be a vibration is 6
The total number of vibrations considered is 3


--------------------------
THERMOCHEMISTRY AT 298.15K
--------------------------

Temperature         ... 298.15 K
Pressure            ... 1.00 atm
Total Mass          ... 18.02 AMU

Throughout the following assumptions are being made:
  (1) The electronic state is orbitally nondegenerate
  (2) There are no thermally accessible electronically excited states
  (3) Hindered rotations indicated by low frequency modes are not
      treated as such but are treated as vibrations and this may
      cause some error
  (4) All equations used are the standard statistical mechanics
      equations for an ideal gas
  (5) All vibrations are strictly harmonic

freq.    1608.05  E(vib)   ...       0.00 
freq.    3679.43  E(vib)   ...       0.00 
freq.    3778.64  E(vib)   ...       0.00 

------------
INNER ENERGY
------------

The inner energy is: U= E(el) + E(ZPE) + E(vib) + E(rot) + E(trans)
    E(el)   - is the total energy from the electronic structure calculation
              = E(kin-el) + E(nuc-el) + E(el-el) + E(nuc-nuc)
    E(ZPE)  - the the zero temperature vibrational energy from the frequency calculation
    E(vib)  - the the finite temperature correction to E(ZPE) due to population
              of excited vibrational states
    E(rot)  - is the rotational thermal energy
    E(trans)- is the translational thermal energy

Summary of contributions to the inner energy U:
Electronic energy                ...    -76.36076918 Eh
Zero point energy                ...      0.02065413 Eh      12.96 kcal/mol
Thermal vibrational correction   ...      0.00000313 Eh       0.00 kcal/mol
Thermal rotational correction    ...      0.00141627 Eh       0.89 kcal/mol
Thermal translational correction ...      0.00141627 Eh       0.89 kcal/mol
-----------------------------------------------------------------------
Total thermal energy                    -76.33727937 Eh


Summary of corrections to the electronic energy:
(perhaps to be used in another calculation)
Total thermal correction                  0.00283567 Eh       1.78 kcal/mol
Non-thermal (ZPE) correction              0.02065413 Eh      12.96 kcal/mol
-----------------------------------------------------------------------
Total correction                          0.02348980 Eh      14.74 kcal/mol


--------
ENTHALPY
--------

The enthalpy is H = U + kB*T
                kB is Boltzmann's constant
Total free energy                 ...    -76.33727937 Eh 
Thermal Enthalpy correction       ...      0.00094421 Eh       0.59 kcal/mol
-----------------------------------------------------------------------
Total Enthalpy                    ...    -76.33633517 Eh


Note: Rotational entropy computed according to Herzberg 
Infrared and Raman Spectra, Chapter V,1, Van Nostrand Reinhold, 1945 
Point Group:  Cs, Symmetry Number:   1  
Rotational constants in cm-1:    25.083956    14.521603     9.197175 

Vibrational entropy computed according to the QRRHO of S. Grimme
Chem.Eur.J. 2012 18 9955


-------
ENTROPY
-------

The entropy contributions are T*S = T*(S(el)+S(vib)+S(rot)+S(trans))
     S(el)   - electronic entropy
     S(vib)  - vibrational entropy
     S(rot)  - rotational entropy
     S(trans)- translational entropy
The entropies will be listed as mutliplied by the temperature to get
units of energy

Electronic entropy                ...      0.00000000 Eh      0.00 kcal/mol
Vibrational entropy               ...      0.00000353 Eh      0.00 kcal/mol
Rotational entropy                ...      0.00567896 Eh      3.56 kcal/mol
Translational entropy             ...      0.01644380 Eh     10.32 kcal/mol
-----------------------------------------------------------------------
Final entropy term                ...      0.02212630 Eh     13.88 kcal/mol

In case the symmetry of your molecule has not been determined correctly
or in case you have a reason to use a different symmetry number we print 
out the resulting rotational entropy values for sn=1,12 :
 --------------------------------------------------------
|  sn= 1 | S(rot)=       0.00567896 Eh      3.56 kcal/mol|
|  sn= 2 | S(rot)=       0.00502451 Eh      3.15 kcal/mol|
|  sn= 3 | S(rot)=       0.00464168 Eh      2.91 kcal/mol|
|  sn= 4 | S(rot)=       0.00437005 Eh      2.74 kcal/mol|
|  sn= 5 | S(rot)=       0.00415936 Eh      2.61 kcal/mol|
|  sn= 6 | S(rot)=       0.00398722 Eh      2.50 kcal/mol|
|  sn= 7 | S(rot)=       0.00384167 Eh      2.41 kcal/mol|
|  sn= 8 | S(rot)=       0.00371559 Eh      2.33 kcal/mol|
|  sn= 9 | S(rot)=       0.00360439 Eh      2.26 kcal/mol|
|  sn=10 | S(rot)=       0.00350491 Eh      2.20 kcal/mol|
|  sn=11 | S(rot)=       0.00341492 Eh      2.14 kcal/mol|
|  sn=12 | S(rot)=       0.00333276 Eh      2.09 kcal/mol|
 --------------------------------------------------------


-------------------
GIBBS FREE ENERGY
-------------------

The Gibbs free energy is G = H - T*S

Total enthalpy                    ...    -76.33633517 Eh 
Total entropy correction          ...     -0.02212630 Eh    -13.88 kcal/mol
-----------------------------------------------------------------------
Final Gibbs free energy         ...    -76.35846146 Eh

For completeness - the Gibbs free energy minus the electronic energy
G-E(el)                           ...      0.00230771 Eh      1.45 kcal/mol


Timings for individual modules:

Sum of individual times         ...       64.787 sec (=   1.080 min)
GTO integral calculation        ...        1.306 sec (=   0.022 min)   2.0 %
SCF iterations                  ...        1.872 sec (=   0.031 min)   2.9 %
Analytical frequency calculation...       61.609 sec (=   1.027 min)  95.1 %



                             ****ORCA TERMINATED NORMALLY****
TOTAL RUN TIME: 0 days 0 hours 6 minutes 24 seconds 176 msec
