 Entering Gaussian System, Link 0=g16
 Initial command:
 
-------------------
 Fake log from Gaussian
 -------------------

 Structure from the checkpoint file:  "ethylene.chk"
 Charge =  0 Multiplicity = 1
 No Z-Matrix found in chk file; cartesian coordinates used.
  C                                                -0.533399997437      3.128000001249     -2.343300001221
  C                                                -0.533399997437      3.128000001249     -0.836700000834
  H                                                 0.479399999938      3.128000001249     -2.756899998511
  H                                                -1.072599999360      4.024299998366     -2.691899997504
  H                                                -1.069100000120      2.257399998099     -2.749800001413
  Ru                                                0.214500000149      1.178699998399     -0.166800000224
  C                                                 0.547099998545      3.545099997780     -0.037700000002
  H                                                -1.518400001302      3.204299999501     -0.365099999958
  C                                                 1.390600000624      1.716499998510      1.115800000111
  C                                                 0.027900000013     -0.847899999461     -0.159899999832
  O                                                -1.423699998125      1.276100001293      1.322400001521
  O                                                 1.880399997549      1.190499999315     -1.627500001201
  H                                                 1.064599998829      1.892599998226      2.150199998391
  H                                                 2.458100001697      1.845300001238      0.885700000779
  C                                                -0.379299999975     -1.442700000048     -1.516100001348
  N(GFac=0.403761)                                  0.141899999960     -1.581399998208      0.945400000972
  C                                                -0.503899999911     -0.305800000057     -2.549099997815
  C                                                 0.685199999708     -2.431499999005     -2.029700002630
  C                                                -1.758400001357     -2.124800000277     -1.377100002043
  H                                                -1.296899999498      0.417100000235     -2.294799999655
  H                                                -0.745299999662     -0.695000001814     -3.542699999208
  H                                                 0.473500000010      0.245899999984     -2.669000001871
  H                                                 0.487300000264     -2.725300001441     -3.065699999958
  H                                                 0.734100001035     -3.349899997523     -1.432499998180
  H                                                 1.682600001485     -1.949500000085     -2.010600002090
  H                                                -1.703799999453     -3.093200000791     -0.873999998481
  H                                                -2.213100001971     -2.298800002566     -2.358099997705
  H                                                -2.445800002402     -1.480100001604     -0.801500000614
  C                                                 0.145300000053     -3.086499998164      1.052500002061
  C                                                 0.270700000042     -0.870899999003      2.249299998950
  C                                                -1.051899999772     -3.572800001140      1.874599998354
  C                                                 1.474099999883     -3.568200001231      1.643900002025
  H                                                 0.055899999808     -3.511100002138      0.008700000009
  H                                                -0.974900000615     -3.290700001002      2.932499999848
  H                                                -1.135499997649     -4.664800002185      1.836100001421
  H                                                -1.995700001696     -3.151599997788      1.503900000670
  H                                                 1.612500002190     -3.249700001588      2.683699999738
  H                                                 2.331000001926     -3.189200001872      1.072999999122
  H                                                 1.529200000167     -4.663400000372      1.633899997393
  H                                                -0.474499999944      0.003399999998      2.263499998437
  H                                                 1.290099998253     -0.484100000052      2.391600000259
  H                                                 0.011900000009     -1.519600000588      3.095900000507
  C                                                -2.576899999793      0.865599998188      0.666300001695
  H                                                -2.793299998017      1.530300000835     -0.186799999964
  H                                                -3.411099998146      0.913399998848      1.380799998519
  H                                                -2.475899999042     -0.173799999762      0.295200000015
  C                                                 2.872399999894      0.284299999887     -1.289800002400
  H                                                 3.690399999950      0.399899999887     -2.016599998519
  H                                                 2.488199998337     -0.754199998335     -1.340899999773
  H                                                 3.261299999977      0.475999999845     -0.277200000143
  C                                                 0.302299999759      4.302099999740      1.246099997978
  H                                                 1.500999998427      3.703000000389     -0.547700000834
  H                                                 1.182899998546      4.322700000710      1.899099998327
  H                                                 0.051599999985      5.343599989826      0.993600001393
  H                                                -0.542799999781      3.868300001241      1.795100002007
 Recover connectivity data from disk.
 ITRead=  0  0  0  0  0  0  0  0  0  0  0  0  0  0  0  0  0  0  0  0
 ITRead=  0  0  0  0  0  0  0  0  0  0  0  0  0  0  0  0  0  0  0  0
 ITRead=  0  0  0  0  0  0  0  0  0  0  0  0  0  0  0
 MicOpt= -1 -1 -1 -1 -1 -1 -1 -1 -1 -1 -1 -1 -1 -1 -1 -1 -1 -1 -1 -1
 MicOpt= -1 -1 -1 -1 -1 -1 -1 -1 -1 -1 -1 -1 -1 -1 -1 -1 -1 -1 -1 -1
 MicOpt= -1 -1 -1 -1 -1 -1 -1 -1 -1 -1 -1 -1 -1 -1 -1
 NAtoms=     55 NQM=       55 NQMF=       0 NMMI=      0 NMMIF=      0
                NMic=       0 NMicF=      0.
 



Symmetry turned off by external request.
 Stoichiometry    C16H35NO2Ru
 Framework group  C1[X(C16H35NO2Ru)]
 Deg. of freedom   159
 Full point group                 C1      NOp   1
                          Input orientation:                          
 ---------------------------------------------------------------------
 Center     Atomic      Atomic             Coordinates (Angstroms)
 Number     Number       Type             X           Y           Z
 ---------------------------------------------------------------------
      1          6           0       -0.533400    3.128000   -2.343300
      2          6           0       -0.533400    3.128000   -0.836700
      3          1           0        0.479400    3.128000   -2.756900
      4          1           0       -1.072600    4.024300   -2.691900
      5          1           0       -1.069100    2.257400   -2.749800
      6         44           0        0.214500    1.178700   -0.166800
      7          6           0        0.547100    3.545100   -0.037700
      8          1           0       -1.518400    3.204300   -0.365100
      9          6           0        1.390600    1.716500    1.115800
     10          6           0        0.027900   -0.847900   -0.159900
     11          8           0       -1.423700    1.276100    1.322400
     12          8           0        1.880400    1.190500   -1.627500
     13          1           0        1.064600    1.892600    2.150200
     14          1           0        2.458100    1.845300    0.885700
     15          6           0       -0.379300   -1.442700   -1.516100
     16          7           0        0.141900   -1.581400    0.945400
     17          6           0       -0.503900   -0.305800   -2.549100
     18          6           0        0.685200   -2.431500   -2.029700
     19          6           0       -1.758400   -2.124800   -1.377100
     20          1           0       -1.296900    0.417100   -2.294800
     21          1           0       -0.745300   -0.695000   -3.542700
     22          1           0        0.473500    0.245900   -2.669000
     23          1           0        0.487300   -2.725300   -3.065700
     24          1           0        0.734100   -3.349900   -1.432500
     25          1           0        1.682600   -1.949500   -2.010600
     26          1           0       -1.703800   -3.093200   -0.874000
     27          1           0       -2.213100   -2.298800   -2.358100
     28          1           0       -2.445800   -1.480100   -0.801500
     29          6           0        0.145300   -3.086500    1.052500
     30          6           0        0.270700   -0.870900    2.249300
     31          6           0       -1.051900   -3.572800    1.874600
     32          6           0        1.474100   -3.568200    1.643900
     33          1           0        0.055900   -3.511100    0.008700
     34          1           0       -0.974900   -3.290700    2.932500
     35          1           0       -1.135500   -4.664800    1.836100
     36          1           0       -1.995700   -3.151600    1.503900
     37          1           0        1.612500   -3.249700    2.683700
     38          1           0        2.331000   -3.189200    1.073000
     39          1           0        1.529200   -4.663400    1.633900
     40          1           0       -0.474500    0.003400    2.263500
     41          1           0        1.290100   -0.484100    2.391600
     42          1           0        0.011900   -1.519600    3.095900
     43          6           0       -2.576900    0.865600    0.666300
     44          1           0       -2.793300    1.530300   -0.186800
     45          1           0       -3.411100    0.913400    1.380800
     46          1           0       -2.475900   -0.173800    0.295200
     47          6           0        2.872400    0.284300   -1.289800
     48          1           0        3.690400    0.399900   -2.016600
     49          1           0        2.488200   -0.754200   -1.340900
     50          1           0        3.261300    0.476000   -0.277200
     51          6           0        0.302300    4.302100    1.246100
     52          1           0        1.501000    3.703000   -0.547700
     53          1           0        1.182900    4.322700    1.899100
     54          1           0        0.051600    5.343600    0.993600
     55          1           0       -0.542800    3.868300    1.795100
 ---------------------------------------------------------------------
 Rotational constants (GHZ):           0.4379515           0.2273080           0.2111484



 SCF Done:  E(RO-LYP) =  -929.160110810     A.U. after    2 cycles
            NFock=  1  Conv=0.21D-02     -V/T= 2.0754
 KE= 8.639818942794D+02 PE=-6.348883893661D+03 EE= 2.449637114680D+03
 Leave Link  502 at Tue Mar 14 12:56:05 2023, MaxMem=  5111808000 cpu:              66.5 elap:               3.4
 (Enter /cluster/software/Gaussian/g16_C.01/l508.exe)

 Normal termination of Gaussian 03

 Entering Gaussian System, Link 0=g16
 Initial command:
 
-------------------
 Fake log from Gaussian
 -------------------

 Structure from the checkpoint file:  "ethylene.chk"
 Charge =  0 Multiplicity = 1
 No Z-Matrix found in chk file; cartesian coordinates used.
  C                                                -0.533399997437      3.128000001249     -2.343300001221
  C                                                -0.533399997437      3.128000001249     -0.836700000834
  H                                                 0.479399999938      3.128000001249     -2.756899998511
  H                                                -1.072599999360      4.024299998366     -2.691899997504
  H                                                -1.069100000120      2.257399998099     -2.749800001413
  Ru                                                0.214500000149      1.178699998399     -0.166800000224
  C                                                 0.547099998545      3.545099997780     -0.037700000002
  H                                                -1.518400001302      3.204299999501     -0.365099999958
  C                                                 1.390600000624      1.716499998510      1.115800000111
  C                                                 0.027900000013     -0.847899999461     -0.159899999832
  O                                                -1.423699998125      1.276100001293      1.322400001521
  O                                                 1.880399997549      1.190499999315     -1.627500001201
  H                                                 1.064599998829      1.892599998226      2.150199998391
  H                                                 2.458100001697      1.845300001238      0.885700000779
  C                                                -0.379299999975     -1.442700000048     -1.516100001348
  N(GFac=0.403761)                                  0.141899999960     -1.581399998208      0.945400000972
  C                                                -0.503899999911     -0.305800000057     -2.549099997815
  C                                                 0.685199999708     -2.431499999005     -2.029700002630
  C                                                -1.758400001357     -2.124800000277     -1.377100002043
  H                                                -1.296899999498      0.417100000235     -2.294799999655
  H                                                -0.745299999662     -0.695000001814     -3.542699999208
  H                                                 0.473500000010      0.245899999984     -2.669000001871
  H                                                 0.487300000264     -2.725300001441     -3.065699999958
  H                                                 0.734100001035     -3.349899997523     -1.432499998180
  H                                                 1.682600001485     -1.949500000085     -2.010600002090
  H                                                -1.703799999453     -3.093200000791     -0.873999998481
  H                                                -2.213100001971     -2.298800002566     -2.358099997705
  H                                                -2.445800002402     -1.480100001604     -0.801500000614
  C                                                 0.145300000053     -3.086499998164      1.052500002061
  C                                                 0.270700000042     -0.870899999003      2.249299998950
  C                                                -1.051899999772     -3.572800001140      1.874599998354
  C                                                 1.474099999883     -3.568200001231      1.643900002025
  H                                                 0.055899999808     -3.511100002138      0.008700000009
  H                                                -0.974900000615     -3.290700001002      2.932499999848
  H                                                -1.135499997649     -4.664800002185      1.836100001421
  H                                                -1.995700001696     -3.151599997788      1.503900000670
  H                                                 1.612500002190     -3.249700001588      2.683699999738
  H                                                 2.331000001926     -3.189200001872      1.072999999122
  H                                                 1.529200000167     -4.663400000372      1.633899997393
  H                                                -0.474499999944      0.003399999998      2.263499998437
  H                                                 1.290099998253     -0.484100000052      2.391600000259
  H                                                 0.011900000009     -1.519600000588      3.095900000507
  C                                                -2.576899999793      0.865599998188      0.666300001695
  H                                                -2.793299998017      1.530300000835     -0.186799999964
  H                                                -3.411099998146      0.913399998848      1.380799998519
  H                                                -2.475899999042     -0.173799999762      0.295200000015
  C                                                 2.872399999894      0.284299999887     -1.289800002400
  H                                                 3.690399999950      0.399899999887     -2.016599998519
  H                                                 2.488199998337     -0.754199998335     -1.340899999773
  H                                                 3.261299999977      0.475999999845     -0.277200000143
  C                                                 0.302299999759      4.302099999740      1.246099997978
  H                                                 1.500999998427      3.703000000389     -0.547700000834
  H                                                 1.182899998546      4.322700000710      1.899099998327
  H                                                 0.051599999985      5.343599989826      0.993600001393
  H                                                -0.542799999781      3.868300001241      1.795100002007
 Recover connectivity data from disk.
 ITRead=  0  0  0  0  0  0  0  0  0  0  0  0  0  0  0  0  0  0  0  0
 ITRead=  0  0  0  0  0  0  0  0  0  0  0  0  0  0  0  0  0  0  0  0
 ITRead=  0  0  0  0  0  0  0  0  0  0  0  0  0  0  0
 MicOpt= -1 -1 -1 -1 -1 -1 -1 -1 -1 -1 -1 -1 -1 -1 -1 -1 -1 -1 -1 -1
 MicOpt= -1 -1 -1 -1 -1 -1 -1 -1 -1 -1 -1 -1 -1 -1 -1 -1 -1 -1 -1 -1
 MicOpt= -1 -1 -1 -1 -1 -1 -1 -1 -1 -1 -1 -1 -1 -1 -1
 NAtoms=     55 NQM=       55 NQMF=       0 NMMI=      0 NMMIF=      0
                NMic=       0 NMicF=      0.
 



Symmetry turned off by external request.
 Stoichiometry    C16H35NO2Ru
 Framework group  C1[X(C16H35NO2Ru)]
 Deg. of freedom   159
 Full point group                 C1      NOp   1
                          Input orientation:                          
 ---------------------------------------------------------------------
 Center     Atomic      Atomic             Coordinates (Angstroms)
 Number     Number       Type             X           Y           Z
 ---------------------------------------------------------------------
      1          6           0       -0.533400    3.128000   -2.343300
      2          6           0       -0.533400    3.128000   -0.836700
      3          1           0        0.479400    3.128000   -2.756900
      4          1           0       -1.072600    4.024300   -2.691900
      5          1           0       -1.069100    2.257400   -2.749800
      6         44           0        0.214500    1.178700   -0.166800
      7          6           0        0.547100    3.545100   -0.037700
      8          1           0       -1.518400    3.204300   -0.365100
      9          6           0        1.390600    1.716500    1.115800
     10          6           0        0.027900   -0.847900   -0.159900
     11          8           0       -1.423700    1.276100    1.322400
     12          8           0        1.880400    1.190500   -1.627500
     13          1           0        1.064600    1.892600    2.150200
     14          1           0        2.458100    1.845300    0.885700
     15          6           0       -0.379300   -1.442700   -1.516100
     16          7           0        0.141900   -1.581400    0.945400
     17          6           0       -0.503900   -0.305800   -2.549100
     18          6           0        0.685200   -2.431500   -2.029700
     19          6           0       -1.758400   -2.124800   -1.377100
     20          1           0       -1.296900    0.417100   -2.294800
     21          1           0       -0.745300   -0.695000   -3.542700
     22          1           0        0.473500    0.245900   -2.669000
     23          1           0        0.487300   -2.725300   -3.065700
     24          1           0        0.734100   -3.349900   -1.432500
     25          1           0        1.682600   -1.949500   -2.010600
     26          1           0       -1.703800   -3.093200   -0.874000
     27          1           0       -2.213100   -2.298800   -2.358100
     28          1           0       -2.445800   -1.480100   -0.801500
     29          6           0        0.145300   -3.086500    1.052500
     30          6           0        0.270700   -0.870900    2.249300
     31          6           0       -1.051900   -3.572800    1.874600
     32          6           0        1.474100   -3.568200    1.643900
     33          1           0        0.055900   -3.511100    0.008700
     34          1           0       -0.974900   -3.290700    2.932500
     35          1           0       -1.135500   -4.664800    1.836100
     36          1           0       -1.995700   -3.151600    1.503900
     37          1           0        1.612500   -3.249700    2.683700
     38          1           0        2.331000   -3.189200    1.073000
     39          1           0        1.529200   -4.663400    1.633900
     40          1           0       -0.474500    0.003400    2.263500
     41          1           0        1.290100   -0.484100    2.391600
     42          1           0        0.011900   -1.519600    3.095900
     43          6           0       -2.576900    0.865600    0.666300
     44          1           0       -2.793300    1.530300   -0.186800
     45          1           0       -3.411100    0.913400    1.380800
     46          1           0       -2.475900   -0.173800    0.295200
     47          6           0        2.872400    0.284300   -1.289800
     48          1           0        3.690400    0.399900   -2.016600
     49          1           0        2.488200   -0.754200   -1.340900
     50          1           0        3.261300    0.476000   -0.277200
     51          6           0        0.302300    4.302100    1.246100
     52          1           0        1.501000    3.703000   -0.547700
     53          1           0        1.182900    4.322700    1.899100
     54          1           0        0.051600    5.343600    0.993600
     55          1           0       -0.542800    3.868300    1.795100
 ---------------------------------------------------------------------
 Rotational constants (GHZ):           0.4379515           0.2273080           0.2111484



 SCF Done:  E(RO-LYP) =  -929.160110810     A.U. after    2 cycles
            NFock=  1  Conv=0.21D-02     -V/T= 2.0754
 KE= 8.639818942794D+02 PE=-6.348883893661D+03 EE= 2.449637114680D+03
 Leave Link  502 at Tue Mar 14 12:56:05 2023, MaxMem=  5111808000 cpu:              66.5 elap:               3.4
 (Enter /cluster/software/Gaussian/g16_C.01/l508.exe)

 Normal termination of Gaussian 03

 Entering Gaussian System, Link 0=g16
 Initial command:
 
-------------------
 Fake log from Gaussian
 -------------------

 Structure from the checkpoint file:  "ethylene.chk"
 Charge =  0 Multiplicity = 1
 No Z-Matrix found in chk file; cartesian coordinates used.
  C                                                -0.533399997437      3.128000001249     -2.343300001221
  C                                                -0.533399997437      3.128000001249     -0.836700000834
  H                                                 0.479399999938      3.128000001249     -2.756899998511
  H                                                -1.072599999360      4.024299998366     -2.691899997504
  H                                                -1.069100000120      2.257399998099     -2.749800001413
  Ru                                                0.214500000149      1.178699998399     -0.166800000224
  C                                                 0.547099998545      3.545099997780     -0.037700000002
  H                                                -1.518400001302      3.204299999501     -0.365099999958
  C                                                 1.390600000624      1.716499998510      1.115800000111
  C                                                 0.027900000013     -0.847899999461     -0.159899999832
  O                                                -1.423699998125      1.276100001293      1.322400001521
  O                                                 1.880399997549      1.190499999315     -1.627500001201
  H                                                 1.064599998829      1.892599998226      2.150199998391
  H                                                 2.458100001697      1.845300001238      0.885700000779
  C                                                -0.379299999975     -1.442700000048     -1.516100001348
  N(GFac=0.403761)                                  0.141899999960     -1.581399998208      0.945400000972
  C                                                -0.503899999911     -0.305800000057     -2.549099997815
  C                                                 0.685199999708     -2.431499999005     -2.029700002630
  C                                                -1.758400001357     -2.124800000277     -1.377100002043
  H                                                -1.296899999498      0.417100000235     -2.294799999655
  H                                                -0.745299999662     -0.695000001814     -3.542699999208
  H                                                 0.473500000010      0.245899999984     -2.669000001871
  H                                                 0.487300000264     -2.725300001441     -3.065699999958
  H                                                 0.734100001035     -3.349899997523     -1.432499998180
  H                                                 1.682600001485     -1.949500000085     -2.010600002090
  H                                                -1.703799999453     -3.093200000791     -0.873999998481
  H                                                -2.213100001971     -2.298800002566     -2.358099997705
  H                                                -2.445800002402     -1.480100001604     -0.801500000614
  C                                                 0.145300000053     -3.086499998164      1.052500002061
  C                                                 0.270700000042     -0.870899999003      2.249299998950
  C                                                -1.051899999772     -3.572800001140      1.874599998354
  C                                                 1.474099999883     -3.568200001231      1.643900002025
  H                                                 0.055899999808     -3.511100002138      0.008700000009
  H                                                -0.974900000615     -3.290700001002      2.932499999848
  H                                                -1.135499997649     -4.664800002185      1.836100001421
  H                                                -1.995700001696     -3.151599997788      1.503900000670
  H                                                 1.612500002190     -3.249700001588      2.683699999738
  H                                                 2.331000001926     -3.189200001872      1.072999999122
  H                                                 1.529200000167     -4.663400000372      1.633899997393
  H                                                -0.474499999944      0.003399999998      2.263499998437
  H                                                 1.290099998253     -0.484100000052      2.391600000259
  H                                                 0.011900000009     -1.519600000588      3.095900000507
  C                                                -2.576899999793      0.865599998188      0.666300001695
  H                                                -2.793299998017      1.530300000835     -0.186799999964
  H                                                -3.411099998146      0.913399998848      1.380799998519
  H                                                -2.475899999042     -0.173799999762      0.295200000015
  C                                                 2.872399999894      0.284299999887     -1.289800002400
  H                                                 3.690399999950      0.399899999887     -2.016599998519
  H                                                 2.488199998337     -0.754199998335     -1.340899999773
  H                                                 3.261299999977      0.475999999845     -0.277200000143
  C                                                 0.302299999759      4.302099999740      1.246099997978
  H                                                 1.500999998427      3.703000000389     -0.547700000834
  H                                                 1.182899998546      4.322700000710      1.899099998327
  H                                                 0.051599999985      5.343599989826      0.993600001393
  H                                                -0.542799999781      3.868300001241      1.795100002007
 Recover connectivity data from disk.
 ITRead=  0  0  0  0  0  0  0  0  0  0  0  0  0  0  0  0  0  0  0  0
 ITRead=  0  0  0  0  0  0  0  0  0  0  0  0  0  0  0  0  0  0  0  0
 ITRead=  0  0  0  0  0  0  0  0  0  0  0  0  0  0  0
 MicOpt= -1 -1 -1 -1 -1 -1 -1 -1 -1 -1 -1 -1 -1 -1 -1 -1 -1 -1 -1 -1
 MicOpt= -1 -1 -1 -1 -1 -1 -1 -1 -1 -1 -1 -1 -1 -1 -1 -1 -1 -1 -1 -1
 MicOpt= -1 -1 -1 -1 -1 -1 -1 -1 -1 -1 -1 -1 -1 -1 -1
 NAtoms=     55 NQM=       55 NQMF=       0 NMMI=      0 NMMIF=      0
                NMic=       0 NMicF=      0.
 



Symmetry turned off by external request.
 Stoichiometry    C16H35NO2Ru
 Framework group  C1[X(C16H35NO2Ru)]
 Deg. of freedom   159
 Full point group                 C1      NOp   1
                          Input orientation:                          
 ---------------------------------------------------------------------
 Center     Atomic      Atomic             Coordinates (Angstroms)
 Number     Number       Type             X           Y           Z
 ---------------------------------------------------------------------
      1          6           0       -0.533400    3.128000   -2.343300
      2          6           0       -0.533400    3.128000   -0.836700
      3          1           0        0.479400    3.128000   -2.756900
      4          1           0       -1.072600    4.024300   -2.691900
      5          1           0       -1.069100    2.257400   -2.749800
      6         44           0        0.214500    1.178700   -0.166800
      7          6           0        0.547100    3.545100   -0.037700
      8          1           0       -1.518400    3.204300   -0.365100
      9          6           0        1.390600    1.716500    1.115800
     10          6           0        0.027900   -0.847900   -0.159900
     11          8           0       -1.423700    1.276100    1.322400
     12          8           0        1.880400    1.190500   -1.627500
     13          1           0        1.064600    1.892600    2.150200
     14          1           0        2.458100    1.845300    0.885700
     15          6           0       -0.379300   -1.442700   -1.516100
     16          7           0        0.141900   -1.581400    0.945400
     17          6           0       -0.503900   -0.305800   -2.549100
     18          6           0        0.685200   -2.431500   -2.029700
     19          6           0       -1.758400   -2.124800   -1.377100
     20          1           0       -1.296900    0.417100   -2.294800
     21          1           0       -0.745300   -0.695000   -3.542700
     22          1           0        0.473500    0.245900   -2.669000
     23          1           0        0.487300   -2.725300   -3.065700
     24          1           0        0.734100   -3.349900   -1.432500
     25          1           0        1.682600   -1.949500   -2.010600
     26          1           0       -1.703800   -3.093200   -0.874000
     27          1           0       -2.213100   -2.298800   -2.358100
     28          1           0       -2.445800   -1.480100   -0.801500
     29          6           0        0.145300   -3.086500    1.052500
     30          6           0        0.270700   -0.870900    2.249300
     31          6           0       -1.051900   -3.572800    1.874600
     32          6           0        1.474100   -3.568200    1.643900
     33          1           0        0.055900   -3.511100    0.008700
     34          1           0       -0.974900   -3.290700    2.932500
     35          1           0       -1.135500   -4.664800    1.836100
     36          1           0       -1.995700   -3.151600    1.503900
     37          1           0        1.612500   -3.249700    2.683700
     38          1           0        2.331000   -3.189200    1.073000
     39          1           0        1.529200   -4.663400    1.633900
     40          1           0       -0.474500    0.003400    2.263500
     41          1           0        1.290100   -0.484100    2.391600
     42          1           0        0.011900   -1.519600    3.095900
     43          6           0       -2.576900    0.865600    0.666300
     44          1           0       -2.793300    1.530300   -0.186800
     45          1           0       -3.411100    0.913400    1.380800
     46          1           0       -2.475900   -0.173800    0.295200
     47          6           0        2.872400    0.284300   -1.289800
     48          1           0        3.690400    0.399900   -2.016600
     49          1           0        2.488200   -0.754200   -1.340900
     50          1           0        3.261300    0.476000   -0.277200
     51          6           0        0.302300    4.302100    1.246100
     52          1           0        1.501000    3.703000   -0.547700
     53          1           0        1.182900    4.322700    1.899100
     54          1           0        0.051600    5.343600    0.993600
     55          1           0       -0.542800    3.868300    1.795100
 ---------------------------------------------------------------------
 Rotational constants (GHZ):           0.4379515           0.2273080           0.2111484



 SCF Done:  E(RO-LYP) =  -929.160110810     A.U. after    2 cycles
            NFock=  1  Conv=0.21D-02     -V/T= 2.0754
 KE= 8.639818942794D+02 PE=-6.348883893661D+03 EE= 2.449637114680D+03
 Leave Link  502 at Tue Mar 14 12:56:05 2023, MaxMem=  5111808000 cpu:              66.5 elap:               3.4
 (Enter /cluster/software/Gaussian/g16_C.01/l508.exe)

Some rendom error that is not known.
The important bit is that there is no sign of the n_o_r_m_a_l termination.
