72
 energy: -134.145700105639 gnorm: 0.118683506073 xtb: 6.4.0 (d4b70c2)
H        -0.67290000000000   -1.24920000000000   -3.70880000000000
Ru       -0.67290000000000   -1.24920000000000   -1.93490000000000
C        -0.67290000000000   -2.47940000000000   -3.68270000000000
C         0.59010000000000   -2.65480000000000   -2.96830000000000
C        -1.83730000000000   -2.71300000000000   -2.78750000000000
N        -1.45620000000000    0.51800000000000   -3.03680000000000
N        -0.18260000000000   -2.92840000000000   -0.53750000000000
C        -0.65130000000000   -0.12030000000000   -0.17820000000000
H         0.73340000000000   -3.53470000000000   -2.34750000000000
H         1.49010000000000   -2.23460000000000   -3.42440000000000
H        -1.85230000000000   -3.62480000000000   -2.18800000000000
H        -2.81210000000000   -2.39350000000000   -3.16530000000000
C        -1.87170000000000    1.45550000000000   -3.62140000000000
S        -2.43770000000000    2.73230000000000   -4.41750000000000
C         0.07600000000000   -3.81420000000000    0.19970000000000
S         0.42850000000000   -5.02150000000000    1.20440000000000
C         0.49600000000000    0.91200000000000   -0.05440000000000
N        -1.52260000000000    0.08590000000000    0.82570000000000
C        -0.14400000000000    2.02090000000000    0.84310000000000
C         0.87330000000000    1.49870000000000   -1.41360000000000
C         1.74420000000000    0.28900000000000    0.65700000000000
C        -1.19570000000000    1.32050000000000    1.73020000000000
H         0.61900000000000    2.54730000000000    1.44810000000000
H        -0.60550000000000    2.80650000000000    0.21480000000000
C        -0.59540000000000    0.90560000000000    3.06890000000000
C        -2.43300000000000    2.17620000000000    1.97940000000000
H         0.31280000000000    0.29280000000000    2.95730000000000
H        -1.30680000000000    0.38030000000000    3.71260000000000
H        -0.28010000000000    1.79190000000000    3.64030000000000
H        -3.29820000000000    1.59910000000000    2.32470000000000
H        -2.74400000000000    2.76640000000000    1.10870000000000
H        -2.23320000000000    2.92000000000000    2.76700000000000
H         0.05180000000000    2.07570000000000   -1.86320000000000
H         1.72270000000000    2.19050000000000   -1.32060000000000
H         1.18050000000000    0.73000000000000   -2.14580000000000
C         2.75390000000000    1.36850000000000    1.10980000000000
C         2.48890000000000   -0.73340000000000   -0.22300000000000
H         1.37660000000000   -0.23620000000000    1.57590000000000
C         3.90030000000000    0.73570000000000    1.91100000000000
H         3.16220000000000    1.89900000000000    0.22820000000000
H         2.24820000000000    2.13960000000000    1.72560000000000
C         4.61760000000000   -0.35230000000000    1.10000000000000
H         3.50970000000000    0.30200000000000    2.85200000000000
H         4.62240000000000    1.51790000000000    2.21230000000000
C         3.62530000000000   -1.39590000000000    0.57020000000000
H         5.16430000000000    0.10850000000000    0.25520000000000
H         5.38420000000000   -0.84590000000000    1.72680000000000
H         4.15160000000000   -2.12900000000000   -0.06960000000000
H         3.20480000000000   -1.98270000000000    1.41140000000000
H         1.79250000000000   -1.51400000000000   -0.59730000000000
H         2.90380000000000   -0.23830000000000   -1.12130000000000
C        -2.71510000000000   -0.70640000000000    1.10420000000000
C        -3.93800000000000   -0.35470000000000    0.47430000000000
C        -2.71580000000000   -1.77150000000000    2.03470000000000
C        -4.14070000000000    0.75600000000000   -0.53300000000000
C        -5.11770000000000   -1.05570000000000    0.77160000000000
F        -3.09340000000000    1.50600000000000   -0.88240000000000
F        -5.05020000000000    1.65870000000000   -0.11900000000000
F        -4.62890000000000    0.31420000000000   -1.70290000000000
C        -5.11300000000000   -2.09920000000000    1.70180000000000
H        -6.06160000000000   -0.78280000000000    0.27490000000000
C        -6.40670000000000   -2.80830000000000    2.00900000000000
C        -3.91580000000000   -2.45440000000000    2.32180000000000
F        -6.97430000000000   -3.38440000000000    0.93830000000000
F        -7.35960000000000   -1.99240000000000    2.48960000000000
F        -6.33860000000000   -3.79410000000000    2.91370000000000
H        -3.90830000000000   -3.28130000000000    3.04990000000000
C        -1.54230000000000   -2.31300000000000    2.82640000000000
F        -1.64080000000000   -2.00010000000000    4.13540000000000
F        -0.31240000000000   -1.91610000000000    2.49440000000000
F        -1.45910000000000   -3.64930000000000    2.82490000000000
H        -0.73940000000000   -2.47010000000000   -4.78230000000000
72
 energy: -134.173974457792 gnorm: 0.073881613483 xtb: 6.4.0 (d4b70c2)
H        -0.67290000000000   -1.24920000000000   -3.70880000000000
Ru       -0.67290000000000   -1.24920000000000   -1.93490000000000
C        -0.67848291284796   -2.46149821761586   -3.69872684971087
C         0.58464127992943   -2.63980610104922   -2.97955868944032
C        -1.83505884158637   -2.72078294215787   -2.80571844894585
N        -1.46861532665168    0.45802759541728   -3.01195598483735
N        -0.25951699639732   -2.83851332070063   -0.50122535131748
C        -0.65870519017633   -0.11456345496094   -0.17595462041987
H         0.73830607704452   -3.55170710145728   -2.40907233263689
H         1.48538593344418   -2.23979428149991   -3.44954249308004
H        -1.84916606313328   -3.64571486315354   -2.22888170027232
H        -2.81117661790298   -2.41154116608961   -3.18616524482430
C        -1.87189544782178    1.40356198028846   -3.59490342598663
S        -2.40870096140479    2.68167977705576   -4.37867806091146
C         0.05046328168360   -3.74575120596577    0.19319684257059
S         0.44852819363637   -4.99337639147694    1.10897181089018
C         0.48239557633022    0.91603513140972   -0.04974126895211
N        -1.51165862422522    0.08472496569330    0.82807893223376
C        -0.16341803552766    2.01233528419941    0.84055369908791
C         0.87181134088761    1.49770414667859   -1.41224418559338
C         1.74450135822180    0.29300023875015    0.64437558446301
C        -1.20174015690233    1.30881529865599    1.72166647013584
H         0.57480114808444    2.53760947438570    1.44936501391777
H        -0.63347753697288    2.77196518159666    0.20701606691390
C        -0.60793650973126    0.90407488083347    3.06893739592185
C        -2.43571939071943    2.16895676989192    1.97469588005841
H         0.28499659196217    0.29090081417094    2.96472996948323
H        -1.32276147774620    0.37830064685596    3.69913907455216
H        -0.30246259442730    1.79853797680325    3.61849734157999
H        -3.28823902202565    1.58506943545422    2.32417283713955
H        -2.74021351884173    2.74034913131958    1.09798342448337
H        -2.21553475096203    2.90088884164707    2.75732705260602
H         0.04720482890910    2.06433640743136   -1.84858818728196
H         1.71514027116614    2.18425209308636   -1.30822783961659
H         1.16402644932337    0.71713689963060   -2.13035715371069
C         2.76297624856340    1.35375712473028    1.10495481218796
C         2.48910387537117   -0.72872440183469   -0.22264684613002
H         1.39778643628161   -0.24824413310217    1.53848581361896
C         3.90035685750647    0.72460123029133    1.90595543364332
H         3.17419342881758    1.87861431326572    0.23521311525770
H         2.28904544156670    2.11438268989752    1.73624527667023
C         4.61250420907623   -0.35599236379388    1.09590219914033
H         3.50286205432825    0.29198283746433    2.83275891883915
H         4.61443454912827    1.50459902492087    2.20017702125602
C         3.61894326917146   -1.39190087165738    0.56958258464069
H         5.14478337036974    0.10813303536825    0.25596999208578
H         5.36876879366869   -0.84504631497124    1.72159390765601
H         4.14361608932462   -2.11313675204915   -0.06874778846858
H         3.19659490858615   -1.96246709214396    1.40616205475821
H         1.78903427539934   -1.49977132401666   -0.58357103513942
H         2.91603785765264   -0.23152797317961   -1.10149405710038
C        -2.69675288745214   -0.69898247871058    1.09331527714466
C        -3.92360218064375   -0.36142306671936    0.47373840778648
C        -2.71554594725740   -1.76416054347974    2.01931876253058
C        -4.12879213471824    0.75007474242060   -0.53465860374741
C        -5.10082109602490   -1.05441961257772    0.76963174077285
F        -3.06439866299908    1.48301780085032   -0.86235765906324
F        -5.04228886757246    1.63833317227855   -0.09443286824676
F        -4.61947566622859    0.28280415465909   -1.69249541257007
C        -5.10029312517970   -2.09263801013207    1.69579662508591
H        -6.03276343674532   -0.77901226219040    0.27949799270215
C        -6.39827924812934   -2.80276287640157    2.00365729605106
C        -3.90764970525637   -2.44309143995458    2.31145614366737
F        -6.94847303217667   -3.37195478082073    0.91984987128007
F        -7.33667976134027   -1.96877339762016    2.48370608475423
F        -6.29593752871166   -3.78175846575130    2.91076413391426
H        -3.89775995879844   -3.26065302403364    3.03056154362249
C        -1.54647027061056   -2.30144965586212    2.82057678210505
F        -1.66352634660153   -1.96449838351014    4.12434166180541
F        -0.32565194515470   -1.90389815959260    2.46248660108178
F        -1.51309454696153   -3.63632299357473    2.82240413097555
H        -0.74783816712396   -2.53961704966005   -4.79494974981721
72
 energy: -134.190065429507 gnorm: 0.047544267485 xtb: 6.4.0 (d4b70c2)
H        -0.67290000000000   -1.24920000000000   -3.70880000000000
Ru       -0.67290000000000   -1.24920000000000   -1.93490000000000
C        -0.68448034346574   -2.43329052674774   -3.71525368143576
C         0.57374729915377   -2.62866662994703   -2.97169773891498
C        -1.83349858507398   -2.72734825644674   -2.82302620047498
N        -1.48652165523069    0.38733294184866   -2.96163638972680
N        -0.33513810819616   -2.72812066170809   -0.49911682636714
C        -0.65699613715193   -0.11433446825517   -0.17236159467025
H         0.73364937371136   -3.57922976569811   -2.45964569046603
H         1.47773791009871   -2.24657874540908   -3.45351352892656
H        -1.84380525891685   -3.67297965409402   -2.28043021318958
H        -2.81212215100648   -2.42623476035500   -3.20216827953195
C        -1.87142806362411    1.34169670558933   -3.54565790687762
S        -2.37770452590749    2.60966712418172   -4.33320866128728
C        -0.01162278454920   -3.67739159894079    0.13535078776551
S         0.46502545961880   -4.90829598701051    1.01192916290271
C         0.47801358252041    0.91331880455503   -0.04459485114527
N        -1.49838268721671    0.08124558031095    0.82764612021101
C        -0.16958648078382    2.00132848325861    0.83828172904367
C         0.86737682973839    1.49546007834726   -1.41265019384171
C         1.74320597414222    0.28860129361923    0.64941534207030
C        -1.20412936666890    1.28985423154111    1.70607918186663
H         0.55026489756847    2.53049149637379    1.44804131700891
H        -0.65763280042151    2.73297977692323    0.19643147204676
C        -0.61763313342340    0.89653800359625    3.06434544670462
C        -2.43989801998619    2.15336288000753    1.96543613667008
H         0.26559702496694    0.28201297980093    2.96445421694579
H        -1.34327497378518    0.37801090265148    3.68268216806822
H        -0.32652431256407    1.80123888979836    3.59344787065995
H        -3.28138110108001    1.56632178029934    2.32545179121185
H        -2.74370444471630    2.70952114387445    1.08585995661066
H        -2.19939669411575    2.87911932018808    2.73877133202142
H         0.03998866296683    2.05510753333025   -1.83953260123582
H         1.70714191502426    2.17475288825091   -1.29961930708150
H         1.14791577368220    0.70216522257813   -2.11417088426543
C         2.75822363304025    1.35037651652154    1.10274575899756
C         2.48698701357670   -0.72072797323304   -0.22911201667144
H         1.40371507626589   -0.25616147890319    1.52795606603078
C         3.89233668798366    0.71268406092231    1.89979645400410
H         3.17800432848854    1.85963195484955    0.23640803900243
H         2.30016361966005    2.10440493923996    1.73878458036532
C         4.60628012634499   -0.36062982802115    1.08976825152418
H         3.49261264696513    0.27652962311701    2.81549457527911
H         4.60185280467123    1.48959446913035    2.18961122676784
C         3.60755686530516   -1.39004864000352    0.56821604904166
H         5.12435203165722    0.10645680082523    0.25122514748352
H         5.35635757970586   -0.84996042414901    1.71048844401848
H         4.12796284388011   -2.10355078382844   -0.06996439846103
H         3.18276498326076   -1.94550306712413    1.40315050298277
H         1.78723016307441   -1.48530424678334   -0.58235535169087
H         2.92811657772525   -0.22296192190100   -1.09183615543955
C        -2.67491333779693   -0.69122147858545    1.08018881466024
C        -3.90398153153988   -0.36874484191179    0.46839111889717
C        -2.71097740352654   -1.75772710129536    2.00031879498137
C        -4.11182035509956    0.74402173188130   -0.54367200433138
C        -5.08043778218780   -1.05155715001056    0.76224582921524
F        -3.03286710963726    1.45940903243956   -0.85005682757741
F        -5.02724799591981    1.61942704057836   -0.07922836666213
F        -4.60545332138603    0.25450901950403   -1.68788177410027
C        -5.08351534063545   -2.08499449854229    1.68548548037319
H        -6.00177752844183   -0.76990662529917    0.27615452205253
C        -6.38614437594236   -2.79560293919467    1.99729293318335
C        -3.89454263023744   -2.43414207715161    2.29702123933415
F        -6.92048640889395   -3.35681118444056    0.90285969101645
F        -7.30877148998681   -1.94409469042238    2.47607123162143
F        -6.25049238055388   -3.76578742603685    2.90597199022764
H        -3.88158732732725   -3.24122545783314    3.01328796606837
C        -1.54261377618900   -2.29416967740546    2.80881436290338
F        -1.67487415257886   -1.92849157826775    4.10629936116671
F        -0.33484713004421   -1.89269884441459    2.42509375396219
F        -1.55051306138463   -3.62569264951368    2.81762035766923
H        -0.75139579264576   -2.61407227481674   -4.80320856451139
72
 energy: -134.194622661710 gnorm: 0.048468938782 xtb: 6.4.0 (d4b70c2)
H        -0.67290000000000   -1.24920000000000   -3.70880000000000
Ru       -0.67290000000001   -1.24920000000000   -1.93490000000000
C        -0.68423732917537   -2.41720546129600   -3.72924706871013
C         0.56521410532400   -2.62998958522512   -2.96070400581592
C        -1.83159915283892   -2.72914297406935   -2.83693592478626
N        -1.51599988053797    0.33982412786897   -2.90116174845300
N        -0.42930936179072   -2.67023070020974   -0.51808991823495
C        -0.64959566222805   -0.11164468199831   -0.18166294999861
H         0.72251923802328   -3.61083202990391   -2.50008860370618
H         1.47191392397764   -2.24193512294567   -3.43439488690311
H        -1.83813564483078   -3.69916403109767   -2.33530005968448
H        -2.81250449235968   -2.42895310920099   -3.21113423441277
C        -1.89874511056458    1.27348908841003   -3.51648025794098
S        -2.35611904073255    2.56644681868923   -4.28641998109750
C         0.02727145197085   -3.55318626522809    0.13535954673447
S         0.44216529699481   -4.88231168438760    0.89598561609085
C         0.47817747897984    0.91486331923144   -0.04781761992247
N        -1.48822360358445    0.07612104623160    0.81967441142174
C        -0.18137155476376    1.99738950969238    0.82926874004296
C         0.86473732220867    1.49130838912519   -1.41842027178079
C         1.74304884582466    0.28893798533382    0.64329713112074
C        -1.20885867925881    1.27280412896710    1.69431611412643
H         0.52528994632128    2.54252456745064    1.44053120637058
H        -0.68676639459858    2.71083080539092    0.17873696864640
C        -0.63246414376971    0.89020178607372    3.06187155410171
C        -2.44881279400683    2.13306690335904    1.95289051093510
H         0.24984802597370    0.27214203545260    2.97564342052929
H        -1.36990556555211    0.38121082427081    3.67422522483336
H        -0.34979208321870    1.80310812662176    3.57927985011690
H        -3.28166328862514    1.54348481710391    2.32837833263261
H        -2.76106709045109    2.67624034639039    1.06858476048282
H        -2.19642124936544    2.86620103001235    2.71407206129467
H         0.03300606241754    2.04806924909476   -1.84052623218008
H         1.70468820600814    2.16853057781887   -1.30569710626294
H         1.13869997133599    0.68940088526388   -2.11101727730563
C         2.75933041813806    1.34547802741998    1.10011212957511
C         2.48452121849011   -0.71707245672212   -0.23937667961945
H         1.40513920106266   -0.26564659328964    1.51612745866145
C         3.89019258737800    0.70043157574804    1.89851745481556
H         3.18457327654119    1.84794700518892    0.23263756161427
H         2.30772410837106    2.10020613469755    1.73892570871251
C         4.59954881745792   -0.36832381877430    1.07904627283181
H         3.48368166262499    0.25597594205020    2.80728701594060
H         4.59988144150111    1.47513221850758    2.19301312720071
C         3.59738673893543   -1.39647508464141    0.56089797878623
H         5.11018004764802    0.10212904419010    0.23783685769267
H         5.35108377253465   -0.86033460398718    1.69517429380313
H         4.11221645257157   -2.11477367410092   -0.07558999300205
H         3.16417050101472   -1.94055483948996    1.39895490553453
H         1.78297523840380   -1.47537782745932   -0.59916152854072
H         2.93582967514550   -0.21268465014057   -1.09208293823575
C        -2.65818850923246   -0.69368971902110    1.06360887620411
C        -3.88414209127108   -0.37380630017068    0.45302368432423
C        -2.69966858624709   -1.75604243589832    1.98401675898420
C        -4.08985792712343    0.73905345534312   -0.56033522701347
C        -5.06252340442050   -1.04803896082217    0.74695137733499
F        -3.00672064120579    1.44726922216225   -0.85802526104899
F        -5.00378755257598    1.61169496652755   -0.08861590243845
F        -4.58460612562430    0.24409686731462   -1.69853688588341
C        -5.06697182691064   -2.07690319469285    1.67266845469535
H        -5.98070201303381   -0.75821228294463    0.26065022267621
C        -6.36928834976524   -2.78489306825020    1.99052953416333
C        -3.88045436896412   -2.42850628792294    2.28483464121366
F        -6.90053166016991   -3.34430699291264    0.89585003688679
F        -7.28385770658877   -1.92599788599579    2.46840470100171
F        -6.22036910872556   -3.74849444552734    2.90091133358083
H        -3.86555995480525   -3.23160005212188    3.00468854331923
C        -1.53181920043524   -2.28825421361801    2.79723474787919
F        -1.66539197614801   -1.89522250023429    4.08839839593683
F        -0.33005250844650   -1.89269108591374    2.39927868582264
F        -1.55704478848768   -3.61708819458154    2.82650347785418
H        -0.74292940384486   -2.65361896140633   -4.80417571371774
72
 energy: -134.196504314224 gnorm: 0.043692187347 xtb: 6.4.0 (d4b70c2)
H        -0.67289999999999   -1.24920000000000   -3.70880000000000
Ru       -0.67290000000001   -1.24920000000000   -1.93490000000000
C        -0.67985399692679   -2.40859451563429   -3.74192763141913
C         0.55800007161683   -2.63639418337262   -2.94708699540797
C        -1.82939271555794   -2.72826126641918   -2.85126906596412
N        -1.57074651355680    0.29347799284624   -2.85278248992888
N        -0.43712359152877   -2.58023091427376   -0.47814258112716
C        -0.64024303604555   -0.10880324566782   -0.19647456229292
H         0.70720941383697   -3.63873671846853   -2.53114490233279
H         1.46816545558013   -2.23662636846288   -3.40636955047208
H        -1.83363029501966   -3.71800014744572   -2.38652928815577
H        -2.81186171496146   -2.42477758270178   -3.21923357141702
C        -1.91305429651396    1.25124864040255   -3.45373874380723
S        -2.35088020091043    2.52215905038787   -4.26827943069514
C        -0.10302730798609   -3.59460173428875    0.03760538914766
S         0.50388368426220   -4.80626149777586    0.85161904886529
C         0.47949049162878    0.91823812478511   -0.05565477151167
N        -1.47846635694658    0.06905320761925    0.80910972316791
C        -0.19416686209522    1.99539772229406    0.81789550610300
C         0.86329288985586    1.48830403375396   -1.42657779756610
C         1.74154469407719    0.29117075498001    0.63263572385919
C        -1.21396889790880    1.25756946150502    1.68365840485929
H         0.50093428733319    2.56033709623627    1.42956838901072
H        -0.71567159530893    2.69374937196427    0.15977511976913
C        -0.64872022333609    0.88462857385690    3.05856766530658
C        -2.45946861759518    2.11029129982856    1.93931528241527
H         0.23429238099167    0.26158647649496    2.98977541009160
H        -1.39752760140595    0.38568034532415    3.66678230782949
H        -0.37069258673665    1.80368025454860    3.56811042795598
H        -3.28311904780433    1.51777037327492    2.33319473616948
H        -2.78559653265614    2.63906159850076    1.04957565631177
H        -2.19998125723153    2.85684478994694    2.68631726258660
H         0.02744752683976    2.04354002118229   -1.84585329010207
H         1.70474757854433    2.16555469289370   -1.31876416743798
H         1.13188509760883    0.68039746790359   -2.11429763662992
C         2.76167773134824    1.33883852199131    1.09721778086919
C         2.48091630523088   -0.71448600155751   -0.25084900164643
H         1.40304467241196   -0.27343472947310    1.50360368658249
C         3.88853747366874    0.68589008527705    1.89687564561296
H         3.19171102992722    1.83926413159396    0.22890175394849
H         2.31352127217300    2.09654764420400    1.73787847314970
C         4.59250673530749   -0.37876941523971    1.06667440934881
H         3.47434435739062    0.23215717151954    2.79995000221209
H         4.60008043306289    1.45737185585252    2.20017466899902
C         3.58615688035419   -1.40455793079868    0.55109502485273
H         5.09695636230181    0.09585811599862    0.22181056545163
H         5.34897041914920   -0.87404671889971    1.67696826518461
H         4.09498786501507   -2.13175505072636   -0.08256445990981
H         3.14330526852725   -1.93926687472240    1.39308964071801
H         1.77679151336396   -1.46611601215304   -0.62326121806929
H         2.94183767788097   -0.20217368618913   -1.09544188230307
C        -2.64349826431462   -0.70165361274071    1.04538277967790
C        -3.86407977265624   -0.37895035625423    0.43282172935401
C        -2.68500547779288   -1.75830316495813    1.96776678901689
C        -4.06554171794030    0.73410729111073   -0.57921073935764
C        -5.04502796297889   -1.04613887259750    0.72759430285319
F        -2.98291054900086    1.44213803321438   -0.87049598514919
F        -4.97864778053701    1.60637438594990   -0.10690004323829
F        -4.55841581546414    0.24120544004254   -1.71630621265483
C        -5.04995106589048   -2.07029079508090    1.65755845192055
H        -5.96235589855329   -0.74839910946042    0.24012345314996
C        -6.34995750596376   -2.77350126596272    1.98240209506773
C        -3.86576481864210   -2.42594371661020    2.27184926025287
F        -6.88430149947863   -3.33384196415232    0.89174940091064
F        -7.25934867351663   -1.91083364837405    2.46031041396749
F        -6.19596917235816   -3.73182411077133    2.89481965645340
H        -3.85029868037064   -3.22684089169003    2.99696527309073
C        -1.51756219382444   -2.28341262406963    2.78392684932043
F        -1.64571962592331   -1.86444713583139    4.06890744460017
F        -0.31817166350882   -1.89852739543597    2.37506212310142
F        -1.54942790650238   -3.60997164860003    2.83889900659082
H        -0.72680004223941   -2.68192109517776   -4.80219742255552
72
 energy: -134.198756749294 gnorm: 0.038271120045 xtb: 6.4.0 (d4b70c2)
H        -0.67289999999999   -1.24920000000000   -3.70880000000000
Ru       -0.67290000000001   -1.24920000000000   -1.93490000000000
C        -0.67635974687209   -2.41477300740448   -3.74095032153655
C         0.55406518050777   -2.64654958768034   -2.93784424220167
C        -1.82930558384733   -2.72674463405454   -2.85292350503006
N        -1.60487579445501    0.29562895144024   -2.85578730443185
N        -0.44982293421576   -2.63050822405542   -0.48080157596031
C        -0.63798767007717   -0.10339584598035   -0.20666068117990
H         0.69504716124622   -3.64245956877139   -2.51913813743860
H         1.46910861464062   -2.24265898271453   -3.38432066622069
H        -1.83639366603908   -3.71045766156085   -2.38393559742386
H        -2.81001972341094   -2.41755273644299   -3.22053483692661
C        -1.93326903515427    1.26468241971046   -3.44776976817718
S        -2.36697118417384    2.53260050376318   -4.27301525521101
C        -0.05442122066823   -3.59382351862024    0.06668114002901
S         0.49551964572459   -4.85120303553401    0.84144601414710
C         0.48240724849788    0.92291074795570   -0.06493899964636
N        -1.47472632440440    0.06781013699911    0.80222009139493
C        -0.19246771561781    1.99834196062182    0.81197356967925
C         0.86445750606468    1.49351603762281   -1.43548689966673
C         1.73783910252444    0.29107531959869    0.62831345749724
C        -1.21285657473195    1.26002479805252    1.67851621735377
H         0.50312662513559    2.56730749974035    1.41951911085736
H        -0.71632871823682    2.69544161901493    0.15526279843089
C        -0.65195575303157    0.88563170083333    3.05289498928045
C        -2.46560263021984    2.10138156226319    1.93243912438718
H         0.22948652923858    0.25903415390972    2.98944422457879
H        -1.40379881382576    0.38985937771511    3.66022521996917
H        -0.37162311068602    1.80206820169360    3.56607469884259
H        -3.28333976935523    1.50490942653723    2.33401610441286
H        -2.80346130013918    2.62186047160370    1.04178694460664
H        -2.21449948267363    2.85739664180746    2.67291080311707
H         0.03028068841804    2.04979488379349   -1.85769525056985
H         1.70800994169862    2.17034036162714   -1.33415337426885
H         1.13222550837404    0.68622590619608   -2.12514628182238
C         2.75900596313057    1.33689302058843    1.09582205330339
C         2.47720834010594   -0.71205382572289   -0.25995843438478
H         1.39301098818655   -0.26941472350599    1.50074169453225
C         3.88319595706123    0.67456593546403    1.89153943038599
H         3.19246594947640    1.84086426952422    0.23039565683539
H         2.30693247670927    2.09530909652553    1.73423436461837
C         4.58845316021170   -0.38897224352786    1.06066663900298
H         3.46912946724152    0.21828885243090    2.79358490352636
H         4.59754605081115    1.44074110189189    2.20215155392241
C         3.57690071395154   -1.40788663778698    0.54336007948026
H         5.09238603670299    0.08738852513851    0.21606372851385
H         5.34790369952507   -0.88737154630581    1.66590904692979
H         4.08280931258678   -2.13894502636394   -0.08872126556652
H         3.13146780570154   -1.94403430843954    1.38340889244919
H         1.77284276452510   -1.46072183957049   -0.64026913926223
H         2.94224895137826   -0.19975292915196   -1.10374034125366
C        -2.63927308755751   -0.70761112368077    1.03657061079103
C        -3.85727186604140   -0.38159897401895    0.41879684539031
C        -2.67536184034504   -1.76411651234052    1.95966517895581
C        -4.05572246008158    0.73341143550854   -0.58987721977236
C        -5.03827477810718   -1.05034428188958    0.71380320738785
F        -2.97712734955892    1.45143176840506   -0.87541778896838
F        -4.97351600192940    1.60426126488839   -0.12389775423908
F        -4.54012862001756    0.24758317322483   -1.73421790849110
C        -5.04257413361840   -2.07263198850377    1.64675789757295
H        -5.95617781394058   -0.75351634445901    0.22613534150105
C        -6.34257687790769   -2.77007382898899    1.97602391940051
C        -3.85877256608582   -2.43037911387575    2.26222636217576
F        -6.88492001081300   -3.33357459212302    0.89048381970106
F        -7.25107292821689   -1.90625556175237    2.45491491367596
F        -6.19474730089447   -3.72772362123010    2.89092713528163
H        -3.84638053786643   -3.22942651316509    2.99004694479507
C        -1.50655178803500   -2.28357619266905    2.77564234515862
F        -1.62953880675363   -1.86214799886857    4.05970705715235
F        -0.30465966694316   -1.90264317901769    2.36783530910764
F        -1.52986149478764   -3.61051637589736    2.83830665880441
H        -0.71562705742402   -2.67694997996888   -4.80111961194212
72
 energy: -134.199192920523 gnorm: 0.045689336545 xtb: 6.4.0 (d4b70c2)
H        -0.67290000000000   -1.24920000000000   -3.70880000000000
Ru       -0.67290000000001   -1.24920000000001   -1.93490000000001
C        -0.67049459495542   -2.41976259993883   -3.73734694285784
C         0.54764748224926   -2.65762798624667   -2.91676036393779
C        -1.83105811618976   -2.72277060713425   -2.85559133994513
N        -1.61661708162963    0.31391766921626   -2.84029440406534
N        -0.48169183162855   -2.64958903979299   -0.44924858594835
C        -0.63060513323041   -0.10357648066527   -0.22010195454802