      -----------------------------------------------------------      
     |                   =====================                   |     
     |                           x T B                           |     
     |                   =====================                   |     
     |                         S. Grimme                         |     
     |          Mulliken Center for Theoretical Chemistry        |     
     |                    University of Bonn                     |     
      -----------------------------------------------------------      

   * xtb version 6.4.0 (d4b70c2) compiled by 'ehlert@majestix' on 2021-02-01

   xtb is free software: you can redistribute it and/or modify it under
   the terms of the GNU Lesser General Public License as published by
   the Free Software Foundation, either version 3 of the License, or
   (at your option) any later version.
   
   xtb is distributed in the hope that it will be useful,
   but WITHOUT ANY WARRANTY; without even the implied warranty of
   MERCHANTABILITY or FITNESS FOR A PARTICULAR PURPOSE.  See the
   GNU Lesser General Public License for more details.
   
   Cite this work as:
   * C. Bannwarth, E. Caldeweyher, S. Ehlert, A. Hansen, P. Pracht,
     J. Seibert, S. Spicher, S. Grimme, WIREs Comput. Mol. Sci., 2020,
     e01493. DOI: 10.1002/wcms.1493
   
   for GFN2-xTB:
   * C. Bannwarth, S. Ehlert and S. Grimme., J. Chem. Theory Comput., 2019,
     15, 1652-1671. DOI: 10.1021/acs.jctc.8b01176
   for GFN1-xTB:
   * S. Grimme, C. Bannwarth, P. Shushkov, J. Chem. Theory Comput., 2017,
     13, 1989-2009. DOI: 10.1021/acs.jctc.7b00118
   for GFN0-xTB:
   * P. Pracht, E. Caldeweyher, S. Ehlert, S. Grimme, ChemRxiv, 2019, preprint.
     DOI: 10.26434/chemrxiv.8326202.v1
   for GFN-FF:
   * S. Spicher and S. Grimme, Angew. Chem. Int. Ed., 2020, 59, 15665-15673.
     DOI: 10.1002/anie.202004239
   
   for DFT-D4:
   * E. Caldeweyher, C. Bannwarth and S. Grimme, J. Chem. Phys., 2017,
     147, 034112. DOI: 10.1063/1.4993215
   * E. Caldeweyher, S. Ehlert, A. Hansen, H. Neugebauer, S. Spicher,
     C. Bannwarth and S. Grimme, J. Chem. Phys., 2019, 150, 154122.
     DOI: 10.1063/1.5090222
   * E. Caldeweyher, J.-M. Mewes, S. Ehlert and S. Grimme, Phys. Chem. Chem. Phys.
     2020, 22, 8499-8512. DOI: 10.1039/D0CP00502A
   
   for sTDA-xTB:
   * S. Grimme and C. Bannwarth, J. Chem. Phys., 2016, 145, 054103.
     DOI: 10.1063/1.4959605
   
   in the mass-spec context:
   * V. Asgeirsson, C. Bauer and S. Grimme, Chem. Sci., 2017, 8, 4879.
     DOI: 10.1039/c7sc00601b
   * J. Koopman and S. Grimme, ACS Omega 2019, 4, 12, 15120-15133.
     DOI: 10.1021/acsomega.9b02011
   
   for metadynamics refer to:
   * S. Grimme, J. Chem. Theory Comput., 2019, 155, 2847-2862
     DOI: 10.1021/acs.jctc.9b00143
   
   with help from (in alphabetical order)
   P. Atkinson, C. Bannwarth, F. Bohle, G. Brandenburg, E. Caldeweyher
   M. Checinski, S. Dohm, S. Ehlert, S. Ehrlich, I. Gerasimov, J. Koopman
   C. Lavinge, S. Lehtola, F. März, M. Müller, F. Musil, H. Neugebauer
   J. Pisarek, P. Pracht, J. Seibert, P. Shushkov, S. Spicher, M. Stahn
   T. Strunk, J. Stückrath, T. Rose, and J. Unsleber
   
 * started run on 2021/06/17 at 12:29:58.005     

           -------------------------------------------------
          |                Calculation Setup                |
           -------------------------------------------------

          program call               : xtb mol.xyz --input xcontrol --ohess
          coordinate file            : mol.xyz
          omp threads                :                    10
          number of atoms            :                    72
          number of electrons        :                   236
          charge                     :                     0
          spin                       :                   0.0
          first test random number   :      0.85683805161679

   ID    Z sym.   atoms
    1    1 H      1, 9-12, 23, 24, 27-35, 38, 40, 41, 43, 44, 46-51, 61, 67,
                  72
    2   44 Ru     2
    3    6 C      3-5, 8, 13, 15, 17, 19-22, 25, 26, 36, 37, 39, 42, 45,
                  52-56, 60, 62, 63, 68
    4    7 N      6, 7, 18
    5   16 S      14, 16
    6    9 F      57-59, 64-66, 69-71

molecular fragmentation (1/2 indicates fragments):
111111121111111122222222222222222222222222222222222222222222222222222221
# atoms in fragment 1/2:    16    56
 fragment masses (1/2) :      259.31      473.42
CMA distance (Bohr)    :   6.694
constraining FC (au)   :  0.0500

           -------------------------------------------------
          |                 G F N 2 - x T B                 |
           -------------------------------------------------

        Reference                      10.1021/acs.jctc.8b01176
      * Hamiltonian:
        H0-scaling (s, p, d)           1.850000    2.230000    2.230000
        zeta-weighting                 0.500000
      * Dispersion:
        s8                             2.700000
        a1                             0.520000
        a2                             5.000000
        s9                             5.000000
      * Repulsion:
        kExp                           1.500000    1.000000
        rExp                           1.000000
      * Coulomb:
        alpha                          2.000000
        third order                    shell-resolved
        anisotropic                    true
        a3                             3.000000
        a5                             4.000000
        cn-shift                       1.200000
        cn-exp                         4.000000
        max-rad                        5.000000


          ...................................................
          :                      SETUP                      :
          :.................................................:
          :  # basis functions                 216          :
          :  # atomic orbitals                 213          :
          :  # shells                          117          :
          :  # electrons                       236          :
          :  max. iterations                   250          :
          :  Hamiltonian                  GFN2-xTB          :
          :  restarted?                      false          :
          :  GBSA solvation                  false          :
          :  PC potential                    false          :
          :  electronic temp.          300.0000000     K    :
          :  accuracy                    1.0000000          :
          :  -> integral cutoff          0.2500000E+02      :
          :  -> integral neglect         0.1000000E-07      :
          :  -> SCF convergence          0.1000000E-05 Eh   :
          :  -> wf. convergence          0.1000000E-03 e    :
          :  Broyden damping             0.4000000          :
          ...................................................

 iter      E             dE          RMSdq      gap      omega  full diag
   1   -132.5424462 -0.132542E+03  0.691E+00    1.15       0.0  T
   2   -126.7061685  0.583628E+01  0.942E+00    0.13       1.0  T
   3   -131.8244068 -0.511824E+01  0.643E+00    0.03       1.0  T
   4   -135.0065815 -0.318217E+01  0.326E+00    1.69       1.0  T
   5   -135.2436057 -0.237024E+00  0.209E+00    0.93       1.0  T
   6   -135.3813766 -0.137771E+00  0.976E-01    1.05       1.0  T
   7   -135.3983283 -0.169517E-01  0.585E-01    0.68       1.0  T
   8   -135.4000188 -0.169052E-02  0.305E-01    0.33       1.0  T
   9   -135.4020138 -0.199495E-02  0.189E-01    0.30       1.0  T
  10   -135.4028081 -0.794357E-03  0.115E-01    0.30       1.0  T
  11   -135.4028972 -0.891099E-04  0.601E-02    0.26       1.0  T
  12   -135.4030228 -0.125544E-03  0.369E-02    0.25       1.0  T
  13   -135.4030404 -0.176519E-04  0.219E-02    0.27       1.0  T
  14   -135.4030460 -0.555049E-05  0.144E-02    0.25       1.0  T
  15   -135.4030604 -0.144383E-04  0.664E-03    0.26       1.8  T
  16   -135.4030612 -0.812221E-06  0.343E-03    0.26       3.4  T
  17   -135.4030619 -0.624690E-06  0.165E-03    0.26       7.1  T
  18   -135.4030620 -0.101480E-06  0.718E-04    0.26      16.4  T
  19   -135.4030620 -0.385134E-08  0.490E-04    0.26      24.0  T

   *** convergence criteria satisfied after 19 iterations ***

         #    Occupation            Energy/Eh            Energy/eV
      -------------------------------------------------------------
         1        2.0000           -0.9086494             -24.7256
       ...           ...                  ...                  ...
       112        2.0000           -0.4044948             -11.0069
       113        2.0000           -0.3747935             -10.1987
       114        2.0000           -0.3710564             -10.0970
       115        2.0000           -0.3586608              -9.7597
       116        1.9999           -0.3559210              -9.6851
       117        1.9917           -0.3511066              -9.5541
       118        1.9880           -0.3507541              -9.5445 (HOMO)
       119        0.0155           -0.3412912              -9.2870 (LUMO)
       120        0.0048           -0.3401634              -9.2563
       121                         -0.3240491              -8.8178
       122                         -0.2951471              -8.0314
       123                         -0.2809475              -7.6450
       ...                                ...                  ...
       213                          2.8464140              77.4549
      -------------------------------------------------------------
                  HL-Gap            0.0094629 Eh            0.2575 eV
             Fermi-level           -0.3458980 Eh           -9.4124 eV

 SCC (total)                   0 d,  0 h,  0 min,  0.198 sec
 SCC setup                      ...        0 min,  0.000 sec (  0.216%)
 Dispersion                     ...        0 min,  0.001 sec (  0.606%)
 classical contributions        ...        0 min,  0.000 sec (  0.032%)
 integral evaluation            ...        0 min,  0.023 sec ( 11.825%)
 iterations                     ...        0 min,  0.155 sec ( 78.486%)
 molecular gradient             ...        0 min,  0.017 sec (  8.423%)
 printout                       ...        0 min,  0.001 sec (  0.390%)

         :::::::::::::::::::::::::::::::::::::::::::::::::::::
         ::                     SUMMARY                     ::
         :::::::::::::::::::::::::::::::::::::::::::::::::::::
         :: total energy            -134.145700097466 Eh    ::
         :: gradient norm              0.118684000776 Eh/a0 ::
         :: HOMO-LUMO gap              0.257499456678 eV    ::
         ::.................................................::
         :: SCC energy              -135.403061970190 Eh    ::
         :: -> isotropic ES            0.183642831451 Eh    ::
         :: -> anisotropic ES          0.010300017611 Eh    ::
         :: -> anisotropic XC         -0.007052976813 Eh    ::
         :: -> dispersion             -0.102100005977 Eh    ::
         :: repulsion energy           1.251842953536 Eh    ::
         :: add. restraining           0.000000000000 Eh    ::
         :: total charge               0.000000000027 e     ::
         :::::::::::::::::::::::::::::::::::::::::::::::::::::

      ----------------------------------------------------------- 
     |                   =====================                   |
     |                        A N C O P T                        |
     |                   =====================                   |
     |               Approximate Normal Coordinate               |
     |                Rational Function Optimizer                |
      ----------------------------------------------------------- 

Optimization log is written to 't135-trj.xyz'

          ...................................................
          :                      SETUP                      :
          :.................................................:
          :   optimization level            normal          :
          :   max. optcycles                   216          :
          :   ANC micro-cycles                  20          :
          :   degrees of freedom               207          :
          :.................................................:
          :   RF solver                   davidson          :
          :   write xtbopt.log                true          :
          :   linear?                        false          :
          :   energy convergence         0.5000000E-05 Eh   :
          :   grad. convergence          0.1000000E-02 Eh/α :
          :   maximium RF displ.         1.0000000          :
          :   Hlow (freq-cutoff)         0.1000000E-01      :
          :   Hmax (freq-cutoff)         5.0000000          :
          :   S6 in model hess.         20.0000000          :
          ...................................................

generating ANC from model Hessian ...
Using Lindh-Hessian (1995)
 Shifting diagonal of input Hessian by   1.001446309693837E-002
 Lowest  eigenvalues of input Hessian
    0.010000    0.000000   -0.000000    0.000000   -0.000000   -0.000000
    0.000000    0.000000    0.000000    0.000000    0.010029    0.010151
    0.010211    0.010253    0.010321    0.010401    0.010534    0.010622
 Highest eigenvalues
    1.763429    1.820300    1.921023    1.949027    2.689362    2.700333
 

........................................................................
.............................. CYCLE    1 ..............................
........................................................................
   1   -135.4030620 -0.135403E+03  0.239E-04    0.26       0.0  T
   2   -135.4030620  0.306369E-08  0.401E-04    0.26      29.4  T
   3   -135.4030620 -0.477567E-08  0.146E-04    0.26      80.5  T
     SCC iter.                  ...        0 min,  0.026 sec
     gradient                   ...        0 min,  0.016 sec
 * total energy  :  -134.1457001 Eh     change       -0.8173060E-08 Eh
   gradient norm :     0.1084535 Eh/α   predicted     0.0000000E+00 (-100.00%)
   displ. norm   :     0.5875710 α      lambda       -0.3609744E-01
   maximum displ.:     0.2572041 α      in ANC's #54, #43, #68, ...

........................................................................
.............................. CYCLE    2 ..............................
........................................................................
   1   -135.4782096 -0.135478E+03  0.325E-01    0.31       0.0  T
   2   -135.4645008  0.137087E-01  0.480E-01    0.29       1.0  T
   3   -135.4737680 -0.926718E-02  0.343E-01    0.25       1.0  T
   4   -135.4801579 -0.638984E-02  0.137E-01    0.31       1.0  T
   5   -135.4797681  0.389763E-03  0.102E-01    0.29       1.0  T
   6   -135.4803503 -0.582152E-03  0.196E-02    0.29       1.0  T
   7   -135.4803648 -0.145666E-04  0.119E-02    0.29       1.0  T
   8   -135.4803646  0.267272E-06  0.821E-03    0.29       1.4  T
   9   -135.4803678 -0.327940E-05  0.263E-03    0.29       4.5  T
  10   -135.4803680 -0.133610E-06  0.127E-03    0.29       9.3  T
  11   -135.4803680 -0.176926E-07  0.786E-04    0.29      15.0  T
  12   -135.4803680 -0.122332E-07  0.344E-04    0.29      34.3  T
     SCC iter.                  ...        0 min,  0.101 sec
     gradient                   ...        0 min,  0.017 sec
 * total energy  :  -134.1739745 Eh     change       -0.2827435E-01 Eh
   gradient norm :     0.0590631 Eh/α   predicted    -0.2427990E-01 ( -14.13%)
   displ. norm   :     0.6503060 α      lambda       -0.2305700E-01
   maximum displ.:     0.3600154 α      in ANC's #54, #68, #53, ...

........................................................................
.............................. CYCLE    3 ..............................
........................................................................
   1   -135.5322252 -0.135532E+03  0.434E-01    0.30       0.0  T
   2   -135.5047076  0.275176E-01  0.626E-01    0.36       1.0  T
   3   -135.5201331 -0.154254E-01  0.526E-01    0.24       1.0  T
   4   -135.5359468 -0.158137E-01  0.133E-01    0.35       1.0  T
   5   -135.5356880  0.258830E-03  0.105E-01    0.32       1.0  T
   6   -135.5361045 -0.416481E-03  0.259E-02    0.32       1.0  T
   7   -135.5361118 -0.732187E-05  0.196E-02    0.32       1.0  T
   8   -135.5361215 -0.971135E-05  0.102E-02    0.32       1.2  T
   9   -135.5361258 -0.433770E-05  0.380E-03    0.32       3.1  T
  10   -135.5361259 -0.818924E-07  0.189E-03    0.32       6.2  T
  11   -135.5361259 -0.795853E-08  0.116E-03    0.32      10.2  T
  12   -135.5361259 -0.139598E-07  0.482E-04    0.32      24.4  T
  13   -135.5361259 -0.902384E-08  0.251E-04    0.32      47.0  T
     SCC iter.                  ...        0 min,  0.110 sec
     gradient                   ...        0 min,  0.016 sec
 * total energy  :  -134.1900654 Eh     change       -0.1609097E-01 Eh
   gradient norm :     0.0265867 Eh/α   predicted    -0.1640389E-01 (   1.94%)
   displ. norm   :     0.5935819 α      lambda       -0.9231169E-02
   maximum displ.:     0.2690624 α      in ANC's #54, #42, #53, ...

........................................................................
.............................. CYCLE    4 ..............................
........................................................................
   1   -135.5469945 -0.135547E+03  0.429E-01    0.32       0.0  T
   2   -135.5314187  0.155758E-01  0.463E-01    0.40       1.0  T
   3   -135.5249187  0.650005E-02  0.620E-01    0.24       1.0  T
   4   -135.5491579 -0.242392E-01  0.136E-01    0.38       1.0  T
   5   -135.5491115  0.464259E-04  0.991E-02    0.35       1.0  T
   6   -135.5493715 -0.260049E-03  0.242E-02    0.35       1.0  T
   7   -135.5493734 -0.182584E-05  0.175E-02    0.35       1.0  T
   8   -135.5493793 -0.589824E-05  0.891E-03    0.35       1.3  T
   9   -135.5493817 -0.240197E-05  0.333E-03    0.36       3.5  T
  10   -135.5493820 -0.299680E-06  0.165E-03    0.35       7.2  T
  11   -135.5493820 -0.210472E-07  0.123E-03    0.35       9.6  T
  12   -135.5493820 -0.138607E-07  0.703E-04    0.35      16.8  T
  13   -135.5493820 -0.134676E-07  0.266E-04    0.35      44.2  T
     SCC iter.                  ...        0 min,  0.105 sec
     gradient                   ...        0 min,  0.017 sec
 * total energy  :  -134.1946227 Eh     change       -0.4557232E-02 Eh
   gradient norm :     0.0319393 Eh/α   predicted    -0.6241842E-02 (  36.97%)
   displ. norm   :     0.6063541 α      lambda       -0.7970614E-02
   maximum displ.:     0.1904113 α      in ANC's #54, #20, #10, ...

........................................................................
.............................. CYCLE    5 ..............................
........................................................................
   1   -135.5547364 -0.135555E+03  0.451E-01    0.33       0.0  T
   2   -135.5443513  0.103851E-01  0.417E-01    0.40       1.0  T
   3   -135.5295000  0.148513E-01  0.636E-01    0.23       1.0  T
   4   -135.5562904 -0.267904E-01  0.145E-01    0.38       1.0  T
   5   -135.5562919 -0.146175E-05  0.114E-01    0.34       1.0  T
   6   -135.5565057 -0.213747E-03  0.193E-02    0.35       1.0  T
   7   -135.5564976  0.808824E-05  0.195E-02    0.35       1.0  T
   8   -135.5565082 -0.106269E-04  0.897E-03    0.35       1.3  T
   9   -135.5565123 -0.406997E-05  0.270E-03    0.35       4.4  T
  10   -135.5565123 -0.102575E-07  0.166E-03    0.35       7.1  T
  11   -135.5565123 -0.233579E-07  0.123E-03    0.35       9.6  T
  12   -135.5565123 -0.405941E-07  0.501E-04    0.35      23.5  T
  13   -135.5565123 -0.208686E-08  0.201E-04    0.35      58.6  T
     SCC iter.                  ...        0 min,  0.102 sec
     gradient                   ...        0 min,  0.017 sec
 * total energy  :  -134.1965043 Eh     change       -0.1881653E-02 Eh
   gradient norm :     0.0266829 Eh/α   predicted    -0.5450567E-02 ( 189.67%)
   displ. norm   :     0.2773871 α      lambda       -0.3553268E-02
   maximum displ.:     0.0849107 α      in ANC's #10, #21, #54, ...

........................................................................
.............................. CYCLE    6 ..............................
........................................................................
   1   -135.5617088 -0.135562E+03  0.162E-01    0.40       0.0  T
   2   -135.5574280  0.428087E-02  0.247E-01    0.34       1.0  T
   3   -135.5612597 -0.383175E-02  0.144E-01    0.41       1.0  T
   4   -135.5621860 -0.926271E-03  0.541E-02    0.38       1.0  T
   5   -135.5622021 -0.160996E-04  0.400E-02    0.39       1.0  T
   6   -135.5622463 -0.442369E-04  0.902E-03    0.38       1.3  T
   7   -135.5622468 -0.521575E-06  0.570E-03    0.38       2.1  T
   8   -135.5622466  0.268243E-06  0.363E-03    0.38       3.2  T
   9   -135.5622473 -0.778881E-06  0.133E-03    0.38       8.8  T
  10   -135.5622474 -0.348178E-07  0.767E-04    0.38      15.4  T
  11   -135.5622474 -0.315254E-08  0.385E-04    0.38      30.6  T
     SCC iter.                  ...        0 min,  0.086 sec
     gradient                   ...        0 min,  0.017 sec
 * total energy  :  -134.1987567 Eh     change       -0.2252435E-02 Eh
   gradient norm :     0.0164853 Eh/α   predicted    -0.1913337E-02 ( -15.05%)
   displ. norm   :     0.4808656 α      lambda       -0.2782732E-02
   maximum displ.:     0.2738862 α      in ANC's #12, #10, #7, ...

........................................................................
.............................. CYCLE    7 ..............................
........................................................................
   1   -135.5473857 -0.135547E+03  0.250E-01    0.43       0.0  T
   2   -135.5448708  0.251483E-02  0.251E-01    0.39       1.0  T
   3   -135.5432630  0.160787E-02  0.265E-01    0.47       1.0  T
   4   -135.5476635 -0.440056E-02  0.102E-01    0.42       1.0  T
   5   -135.5479766 -0.313046E-03  0.456E-02    0.43       1.0  T
   6   -135.5480391 -0.624799E-04  0.149E-02    0.43       1.0  T
   7   -135.5480388  0.257046E-06  0.104E-02    0.43       1.1  T
   8   -135.5480455 -0.668767E-05  0.281E-03    0.43       4.2  T
   9   -135.5480457 -0.165981E-06  0.144E-03    0.43       8.2  T
  10   -135.5480457 -0.218329E-07  0.895E-04    0.43      13.2  T
  11   -135.5480457 -0.177565E-07  0.496E-04    0.43      23.7  T
     SCC iter.                  ...        0 min,  0.091 sec
     gradient                   ...        0 min,  0.017 sec
 * total energy  :  -134.1991929 Eh     change       -0.4361712E-03 Eh
   gradient norm :     0.0294270 Eh/α   predicted    -0.1713096E-02 ( 292.76%)
   displ. norm   :     0.3288009 α      lambda       -0.2621107E-02
   maximum displ.:     0.1798193 α      in ANC's #14, #5, #9, ...

........................................................................
.............................. CYCLE    8 ..............................
........................................................................
   1   -135.5550534 -0.135555E+03  0.173E-01    0.44       0.0  T
   2   -135.5550854 -0.320674E-04  0.110E-01    0.44       1.0  T
   3   -135.5551090 -0.235984E-04  0.785E-02    0.45       1.0  T
   4   -135.5550639  0.451706E-04  0.533E-02    0.44       1.0  T
   5   -135.5550480  0.158966E-04  0.375E-02    0.45       1.0  T
   6   -135.5551510 -0.103059E-03  0.115E-02    0.44       1.0  T
   7   -135.5551553 -0.427470E-05  0.594E-03    0.44       2.0  T
   8   -135.5551571 -0.174489E-05  0.177E-03    0.44       6.7  T
   9   -135.5551572 -0.991967E-07  0.872E-04    0.44      13.5  T
  10   -135.5551572 -0.259949E-07  0.327E-04    0.44      36.0  T
     SCC iter.                  ...        0 min,  0.080 sec
     gradient                   ...        0 min,  0.017 sec
 * total energy  :  -134.2004365 Eh     change       -0.1243585E-02 Eh
   gradient norm :     0.0233919 Eh/α   predicted    -0.1452241E-02 (  16.78%)
   displ. norm   :     0.3319117 α      lambda       -0.2145723E-02
   maximum displ.:     0.1613461 α      in ANC's #12, #7, #15, ...

........................................................................
.............................. CYCLE    9 ..............................
........................................................................
   1   -135.5780464 -0.135578E+03  0.158E-01    0.43       0.0  T
   2   -135.5772059  0.840487E-03  0.138E-01    0.46       1.0  T
   3   -135.5755152  0.169074E-02  0.208E-01    0.40       1.0  T
   4   -135.5783144 -0.279922E-02  0.471E-02    0.44       1.0  T
   5   -135.5783260 -0.115658E-04  0.204E-02    0.44       1.0  T
   6   -135.5783283 -0.233788E-05  0.716E-03    0.44       1.6  T
   7   -135.5783283  0.485258E-07  0.575E-03    0.44       2.1  T
   8   -135.5783291 -0.881033E-06  0.174E-03    0.44       6.8  T
   9   -135.5783292 -0.140131E-07  0.115E-03    0.44      10.2  T
  10   -135.5783292 -0.361674E-07  0.488E-04    0.44      24.1  T
  11   -135.5783292 -0.255156E-08  0.289E-04    0.44      40.7  T
     SCC iter.                  ...        0 min,  0.087 sec
     gradient                   ...        0 min,  0.017 sec
 * total energy  :  -134.2003625 Eh     change        0.7397941E-04 Eh
   gradient norm :     0.0372611 Eh/α   predicted    -0.1191054E-02 (*******%)
   displ. norm   :     0.2300040 α      lambda       -0.1988129E-02
   maximum displ.:     0.0884219 α      in ANC's #43, #12, #9, ...

........................................................................
.............................. CYCLE   10 ..............................
........................................................................
   1   -135.5657364 -0.135566E+03  0.118E-01    0.46       0.0  T
   2   -135.5653899  0.346450E-03  0.102E-01    0.44       1.0  T
   3   -135.5646737  0.716207E-03  0.137E-01    0.48       1.0  T
   4   -135.5658310 -0.115732E-02  0.419E-02    0.45       1.0  T
   5   -135.5658737 -0.426570E-04  0.168E-02    0.46       1.0  T
   6   -135.5658905 -0.168008E-04  0.423E-03    0.46       2.8  T
   7   -135.5658903  0.211762E-06  0.379E-03    0.46       3.1  T
   8   -135.5658908 -0.491410E-06  0.106E-03    0.46      11.1  T
   9   -135.5658908 -0.258909E-07  0.593E-04    0.46      19.9  T
  10   -135.5658908  0.413786E-08  0.466E-04    0.46      25.3  T
     SCC iter.                  ...        0 min,  0.079 sec
     gradient                   ...        0 min,  0.017 sec
 * total energy  :  -134.2016700 Eh     change       -0.1307476E-02 Eh
   gradient norm :     0.0068843 Eh/α   predicted    -0.1046654E-02 ( -19.95%)
   displ. norm   :     0.4161478 α      lambda       -0.8723556E-03
   maximum displ.:     0.1934463 α      in ANC's #12, #9, #5, ...

........................................................................
.............................. CYCLE   11 ..............................
........................................................................
   1   -135.5610651 -0.135561E+03  0.106E-01    0.48       0.0  T
   2   -135.5608644  0.200716E-03  0.897E-02    0.47       1.0  T
   3   -135.5604243  0.440058E-03  0.107E-01    0.50       1.0  T
   4   -135.5609627 -0.538453E-03  0.576E-02    0.47       1.0  T
   5   -135.5611412 -0.178408E-03  0.144E-02    0.48       1.0  T
   6   -135.5611462 -0.503109E-05  0.486E-03    0.48       2.4  T
   7   -135.5611464 -0.206698E-06  0.297E-03    0.48       4.0  T
   8   -135.5611469 -0.522374E-06  0.116E-03    0.48      10.1  T
   9   -135.5611470 -0.369627E-07  0.541E-04    0.48      21.8  T
  10   -135.5611470 -0.134958E-08  0.337E-04    0.48      34.9  T
     SCC iter.                  ...        0 min,  0.079 sec
     gradient                   ...        0 min,  0.017 sec
 * total energy  :  -134.2023153 Eh     change       -0.6452754E-03 Eh
   gradient norm :     0.0137399 Eh/α   predicted    -0.5117169E-03 ( -20.70%)
   displ. norm   :     0.5154150 α      lambda       -0.8242186E-03
   maximum displ.:     0.2329318 α      in ANC's #9, #12, #5, ...

........................................................................
.............................. CYCLE   12 ..............................
........................................................................
   1   -135.5609364 -0.135561E+03  0.102E-01    0.50       0.0  T
   2   -135.5606091  0.327263E-03  0.975E-02    0.49       1.0  T
   3   -135.5603130  0.296177E-03  0.104E-01    0.52       1.0  T
   4   -135.5608861 -0.573140E-03  0.586E-02    0.49       1.0  T
   5   -135.5610061 -0.120004E-03  0.180E-02    0.50       1.0  T
   6   -135.5610096 -0.354438E-05  0.361E-03    0.50       3.3  T
   7   -135.5610096  0.419888E-07  0.270E-03    0.50       4.4  T
   8   -135.5610100 -0.352581E-06  0.130E-03    0.50       9.1  T
   9   -135.5610100 -0.676929E-07  0.467E-04    0.50      25.2  T
  10   -135.5610100 -0.732143E-09  0.280E-04    0.50      42.1  T
     SCC iter.                  ...        0 min,  0.079 sec
     gradient                   ...        0 min,  0.017 sec
 * total energy  :  -134.2029854 Eh     change       -0.6701601E-03 Eh
   gradient norm :     0.0157018 Eh/α   predicted    -0.5215875E-03 ( -22.17%)
   displ. norm   :     0.5763253 α      lambda       -0.8761490E-03
   maximum displ.:     0.2516600 α      in ANC's #9, #12, #5, ...

........................................................................
.............................. CYCLE   13 ..............................
........................................................................
   1   -135.5645956 -0.135565E+03  0.102E-01    0.51       0.0  T
   2   -135.5643033  0.292310E-03  0.101E-01    0.50       1.0  T
   3   -135.5641247  0.178576E-03  0.939E-02    0.52       1.0  T
   4   -135.5644147 -0.289947E-03  0.765E-02    0.50       1.0  T
   5   -135.5646547 -0.240023E-03  0.125E-02    0.51       1.0  T
   6   -135.5646575 -0.277309E-05  0.308E-03    0.51       3.8  T
   7   -135.5646573  0.194923E-06  0.277E-03    0.51       4.2  T
   8   -135.5646577 -0.392792E-06  0.947E-04    0.51      12.4  T
   9   -135.5646577 -0.217512E-07  0.505E-04    0.51      23.3  T
     SCC iter.                  ...        0 min,  0.074 sec
     gradient                   ...        0 min,  0.017 sec
 * total energy  :  -134.2036448 Eh     change       -0.6593956E-03 Eh
   gradient norm :     0.0070428 Eh/α   predicted    -0.5835822E-03 ( -11.50%)
   displ. norm   :     0.5346520 α      lambda       -0.5041322E-03
   maximum displ.:     0.2368771 α      in ANC's #5, #1, #9, ...

........................................................................
.............................. CYCLE   14 ..............................
........................................................................
   1   -135.5667150 -0.135567E+03  0.953E-02    0.52       0.0  T
   2   -135.5664879  0.227120E-03  0.906E-02    0.52       1.0  T
   3   -135.5662607  0.227187E-03  0.903E-02    0.54       1.0  T
   4   -135.5665254 -0.264706E-03  0.730E-02    0.51       1.0  T
   5   -135.5667589 -0.233404E-03  0.126E-02    0.52       1.0  T
   6   -135.5667622 -0.337576E-05  0.302E-03    0.52       3.9  T
   7   -135.5667623 -0.738906E-07  0.186E-03    0.52       6.4  T
   8   -135.5667624 -0.534384E-07  0.117E-03    0.52      10.0  T
   9   -135.5667624 -0.749069E-07  0.378E-04    0.52      31.2  T
  10   -135.5667624 -0.232097E-08  0.216E-04    0.52      54.5  T
     SCC iter.                  ...        0 min,  0.080 sec
     gradient                   ...        0 min,  0.017 sec
 * total energy  :  -134.2040328 Eh     change       -0.3879765E-03 Eh
   gradient norm :     0.0053701 Eh/α   predicted    -0.3241229E-03 ( -16.46%)
   displ. norm   :     0.4759479 α      lambda       -0.3686062E-03
   maximum displ.:     0.2337882 α      in ANC's #5, #1, #12, ...

........................................................................
.............................. CYCLE   15 ..............................
........................................................................
   1   -135.5685023 -0.135569E+03  0.885E-02    0.53       0.0  T
   2   -135.5683474  0.154996E-03  0.793E-02    0.52       1.0  T
   3   -135.5680962  0.251127E-03  0.845E-02    0.54       1.0  T
   4   -135.5682739 -0.177668E-03  0.723E-02    0.52       1.0  T
   5   -135.5685260 -0.252129E-03  0.118E-02    0.53       1.0  T
   6   -135.5685326 -0.653628E-05  0.276E-03    0.53       4.3  T
   7   -135.5685327 -0.151865E-06  0.162E-03    0.53       7.3  T
   8   -135.5685328 -0.487504E-07  0.685E-04    0.53      17.2  T
   9   -135.5685328 -0.116146E-07  0.372E-04    0.53      31.7  T
     SCC iter.                  ...        0 min,  0.082 sec
     gradient                   ...        0 min,  0.017 sec
 * total energy  :  -134.2043277 Eh     change       -0.2948592E-03 Eh
   gradient norm :     0.0057138 Eh/α   predicted    -0.2260567E-03 ( -23.33%)
   displ. norm   :     0.4757930 α      lambda       -0.3554681E-03
   maximum displ.:     0.2562349 α      in ANC's #5, #1, #7, ...

........................................................................
.............................. CYCLE   16 ..............................
........................................................................
   1   -135.5695796 -0.135570E+03  0.940E-02    0.53       0.0  T
   2   -135.5694651  0.114485E-03  0.777E-02    0.53       1.0  T
   3   -135.5691655  0.299633E-03  0.864E-02    0.55       1.0  T
   4   -135.5692580 -0.925197E-04  0.776E-02    0.52       1.0  T
   5   -135.5695997 -0.341721E-03  0.150E-02    0.53       1.0  T
   6   -135.5696072 -0.753392E-05  0.313E-03    0.54       3.8  T
   7   -135.5696075 -0.245702E-06  0.193E-03    0.53       6.1  T
   8   -135.5696076 -0.939255E-07  0.103E-03    0.54      11.4  T
   9   -135.5696076 -0.386995E-07  0.404E-04    0.54      29.2  T
  10   -135.5696076 -0.317632E-08  0.224E-04    0.54      52.6  T
     SCC iter.                  ...        0 min,  0.081 sec
     gradient                   ...        0 min,  0.017 sec
 * total energy  :  -134.2046134 Eh     change       -0.2857110E-03 Eh
   gradient norm :     0.0052515 Eh/α   predicted    -0.2179699E-03 ( -23.71%)
   displ. norm   :     0.4944177 α      lambda       -0.3515960E-03
   maximum displ.:     0.2823772 α      in ANC's #5, #1, #4, ...

........................................................................
.............................. CYCLE   17 ..............................
........................................................................
   1   -135.5699079 -0.135570E+03  0.103E-01    0.54       0.0  T
   2   -135.5698166  0.912426E-04  0.788E-02    0.53       1.0  T
   3   -135.5694386  0.378068E-03  0.924E-02    0.55       1.0  T
   4   -135.5693700  0.685222E-04  0.934E-02    0.52       1.0  T
   5   -135.5699130 -0.543012E-03  0.168E-02    0.53       1.0  T
   6   -135.5699287 -0.156750E-04  0.412E-03    0.53       2.9  T
   7   -135.5699295 -0.744483E-06  0.183E-03    0.53       6.4  T
   8   -135.5699295 -0.611056E-07  0.526E-04    0.53      22.4  T
   9   -135.5699295 -0.408079E-09  0.302E-04    0.53      39.1  T
     SCC iter.                  ...        0 min,  0.071 sec
     gradient                   ...        0 min,  0.017 sec
 * total energy  :  -134.2048801 Eh     change       -0.2666779E-03 Eh
   gradient norm :     0.0054131 Eh/α   predicted    -0.2187746E-03 ( -17.96%)
   displ. norm   :     0.4714397 α      lambda       -0.2663359E-03
   maximum displ.:     0.2825933 α      in ANC's #5, #1, #4, ...

........................................................................
.............................. CYCLE   18 ..............................
........................................................................
   1   -135.5683743 -0.135568E+03  0.102E-01    0.53       0.0  T
   2   -135.5683178  0.564944E-04  0.769E-02    0.53       1.0  T
   3   -135.5680847  0.233127E-03  0.791E-02    0.54       1.0  T
   4   -135.5677484  0.336287E-03  0.952E-02    0.52       1.0  T
   5   -135.5683913 -0.642903E-03  0.154E-02    0.53       1.0  T
   6   -135.5683976 -0.627781E-05  0.419E-03    0.53       2.8  T
   7   -135.5683984 -0.837991E-06  0.227E-03    0.53       5.2  T
   8   -135.5683986 -0.160039E-06  0.103E-03    0.53      11.4  T
   9   -135.5683986 -0.257205E-07  0.434E-04    0.53      27.2  T
  10   -135.5683986 -0.121878E-08  0.187E-04    0.53      63.2  T
     SCC iter.                  ...        0 min,  0.079 sec
     gradient                   ...        0 min,  0.017 sec
 * total energy  :  -134.2050691 Eh     change       -0.1890378E-03 Eh
   gradient norm :     0.0069582 Eh/α   predicted    -0.1627661E-03 ( -13.90%)
   displ. norm   :     0.4057376 α      lambda       -0.2316156E-03
   maximum displ.:     0.2328587 α      in ANC's #5, #1, #4, ...

........................................................................
.............................. CYCLE   19 ..............................
........................................................................
   1   -135.5708850 -0.135571E+03  0.739E-02    0.53       0.0  T
   2   -135.5708916 -0.662454E-05  0.510E-02    0.53       1.0  T
   3   -135.5708844  0.722852E-05  0.399E-02    0.53       1.0  T
   4   -135.5707215  0.162818E-03  0.491E-02    0.52       1.0  T
   5   -135.5709027 -0.181210E-03  0.152E-02    0.54       1.0  T
   6   -135.5709111 -0.831167E-05  0.372E-03    0.53       3.2  T
   7   -135.5709114 -0.392971E-06  0.215E-03    0.53       5.5  T
   8   -135.5709116 -0.166257E-06  0.107E-03    0.53      11.0  T
   9   -135.5709116 -0.275006E-07  0.314E-04    0.53      37.5  T
  10   -135.5709116  0.205057E-08  0.288E-04    0.53      40.9  T
     SCC iter.                  ...        0 min,  0.078 sec
     gradient                   ...        0 min,  0.017 sec
 * total energy  :  -134.2051844 Eh     change       -0.1152939E-03 Eh
   gradient norm :     0.0099115 Eh/α   predicted    -0.1348731E-03 (  16.98%)
   displ. norm   :     0.3633988 α      lambda       -0.2408812E-03
   maximum displ.:     0.2307370 α      in ANC's #5, #1, #4, ...

........................................................................
.............................. CYCLE   20 ..............................
........................................................................
   1   -135.5670736 -0.135567E+03  0.102E-01    0.54       0.0  T
   2   -135.5669977  0.759326E-04  0.772E-02    0.53       1.0  T
   3   -135.5666646  0.333130E-03  0.869E-02    0.55       1.0  T
   4   -135.5666441  0.204629E-04  0.834E-02    0.52       1.0  T
   5   -135.5671027 -0.458610E-03  0.190E-02    0.53       1.0  T
   6   -135.5671136 -0.108932E-04  0.399E-03    0.54       3.0  T
   7   -135.5671143 -0.656797E-06  0.175E-03    0.54       6.7  T
   8   -135.5671143 -0.217295E-07  0.784E-04    0.54      15.0  T
   9   -135.5671143 -0.598121E-08  0.412E-04    0.54      28.6  T
     SCC iter.                  ...        0 min,  0.070 sec
     gradient                   ...        0 min,  0.017 sec
 * total energy  :  -134.2053221 Eh     change       -0.1377503E-03 Eh
   gradient norm :     0.0068781 Eh/α   predicted    -0.1363505E-03 (  -1.02%)
   displ. norm   :     0.1918551 α      lambda       -0.1652642E-03
   maximum displ.:     0.0935403 α      in ANC's #5, #2, #1, ...
 * RMSD in coord.:     0.5799274 α      energy gain  -0.5962204E-01 Eh

generating ANC from model Hessian ...
Using Lindh-Hessian (1995)
 Shifting diagonal of input Hessian by   1.015974622876708E-002
 Lowest  eigenvalues of input Hessian
    0.010000   -0.000000    0.000000    0.000000   -0.000000    0.000000
    0.000000    0.000000    0.000000    0.000000    0.010217    0.010366
    0.010417    0.010498    0.010681    0.010796    0.010879    0.011038
 Highest eigenvalues
    1.873121    1.897139    2.007816    2.073031    2.819261    2.822040
 

........................................................................
.............................. CYCLE   21 ..............................
........................................................................
   1   -135.5711444 -0.135571E+03  0.443E-02    0.54       0.0  T
   2   -135.5711427  0.164721E-05  0.336E-02    0.54       1.0  T
   3   -135.5711426  0.114084E-06  0.228E-02    0.54       1.0  T
   4   -135.5710914  0.512085E-04  0.294E-02    0.54       1.0  T
   5   -135.5711433 -0.519063E-04  0.113E-02    0.55       1.0  T
   6   -135.5711516 -0.828230E-05  0.225E-03    0.54       5.2  T
   7   -135.5711517 -0.534405E-07  0.832E-04    0.54      14.2  T
   8   -135.5711517  0.747440E-08  0.668E-04    0.54      17.6  T
     SCC iter.                  ...        0 min,  0.063 sec
     gradient                   ...        0 min,  0.017 sec
 * total energy  :  -134.2054144 Eh     change       -0.9226291E-04 Eh
   gradient norm :     0.0094009 Eh/α   predicted     0.0000000E+00 (-100.00%)
   displ. norm   :     0.0718040 α      lambda       -0.1487390E-03
   maximum displ.:     0.0316302 α      in ANC's #8, #11, #20, ...

........................................................................
.............................. CYCLE   22 ..............................
........................................................................
   1   -135.5700362 -0.135570E+03  0.360E-02    0.54       0.0  T
   2   -135.5700275  0.867854E-05  0.278E-02    0.55       1.0  T
   3   -135.5699874  0.401398E-04  0.326E-02    0.54       1.0  T
   4   -135.5700102 -0.227566E-04  0.228E-02    0.55       1.0  T
   5   -135.5700442 -0.340646E-04  0.553E-03    0.54       2.1  T
   6   -135.5700455 -0.128861E-05  0.206E-03    0.54       5.7  T
   7   -135.5700456 -0.480986E-07  0.136E-03    0.54       8.6  T
   8   -135.5700457 -0.101609E-06  0.614E-04    0.54      19.2  T
   9   -135.5700457 -0.947807E-08  0.140E-04    0.54      84.0  T
     SCC iter.                  ...        0 min,  0.072 sec
     gradient                   ...        0 min,  0.017 sec
 * total energy  :  -134.2054833 Eh     change       -0.6893904E-04 Eh
   gradient norm :     0.0030865 Eh/α   predicted    -0.7475312E-04 (   8.43%)
   displ. norm   :     0.1241909 α      lambda       -0.1679049E-03
   maximum displ.:     0.0437991 α      in ANC's #16, #6, #2, ...

........................................................................
.............................. CYCLE   23 ..............................
........................................................................
   1   -135.5686895 -0.135569E+03  0.456E-02    0.55       0.0  T
   2   -135.5686893  0.156131E-06  0.318E-02    0.54       1.0  T
   3   -135.5686939 -0.464523E-05  0.231E-02    0.54       1.0  T
   4   -135.5686823  0.116424E-04  0.238E-02    0.55       1.0  T
   5   -135.5686856 -0.326248E-05  0.145E-02    0.54       1.0  T
   6   -135.5687022 -0.166174E-04  0.376E-03    0.55       3.1  T
   7   -135.5687030 -0.837294E-06  0.163E-03    0.55       7.2  T
   8   -135.5687031 -0.101466E-06  0.767E-04    0.55      15.4  T
   9   -135.5687031 -0.183222E-07  0.184E-04    0.55      64.1  T
     SCC iter.                  ...        0 min,  0.071 sec
     gradient                   ...        0 min,  0.017 sec
 * total energy  :  -134.2055380 Eh     change       -0.5464063E-04 Eh
   gradient norm :     0.0102718 Eh/α   predicted    -0.8524738E-04 (  56.01%)
   displ. norm   :     0.0621546 α      lambda       -0.8903557E-04
   maximum displ.:     0.0296872 α      in ANC's #8, #4, #2, ...

........................................................................
.............................. CYCLE   24 ..............................
........................................................................
   1   -135.5688592 -0.135569E+03  0.193E-02    0.55       0.0  T
   2   -135.5688613 -0.213863E-05  0.130E-02    0.55       1.0  T
   3   -135.5688627 -0.132460E-05  0.811E-03    0.55       1.5  T
   4   -135.5688515  0.111192E-04  0.134E-02    0.55       1.0  T
   5   -135.5688636 -0.120072E-04  0.351E-03    0.55       3.4  T
   6   -135.5688642 -0.670967E-06  0.131E-03    0.55       9.0  T
   7   -135.5688642 -0.191871E-07  0.486E-04    0.55      24.3  T
   8   -135.5688642 -0.967759E-10  0.243E-04    0.55      48.6  T
     SCC iter.                  ...        0 min,  0.064 sec
     gradient                   ...        0 min,  0.017 sec
 * total energy  :  -134.2056076 Eh     change       -0.6962502E-04 Eh
   gradient norm :     0.0044080 Eh/α   predicted    -0.4469332E-04 ( -35.81%)
   displ. norm   :     0.2186930 α      lambda       -0.1555064E-03
   maximum displ.:     0.0987912 α      in ANC's #8, #4, #7, ...

........................................................................
.............................. CYCLE   25 ..............................
........................................................................
   1   -135.5688673 -0.135569E+03  0.514E-02    0.55       0.0  T
   2   -135.5688696 -0.232385E-05  0.343E-02    0.55       1.0  T
   3   -135.5688474  0.221786E-04  0.337E-02    0.55       1.0  T
   4   -135.5687805  0.669334E-04  0.383E-02    0.56       1.0  T
   5   -135.5688788 -0.983487E-04  0.994E-03    0.55       1.2  T
   6   -135.5688835 -0.464033E-05  0.317E-03    0.55       3.7  T
   7   -135.5688837 -0.195294E-06  0.105E-03    0.55      11.2  T
   8   -135.5688837  0.333026E-08  0.579E-04    0.55      20.3  T
   9   -135.5688837 -0.616478E-08  0.259E-04    0.55      45.5  T
     SCC iter.                  ...        0 min,  0.072 sec
     gradient                   ...        0 min,  0.017 sec
 * total energy  :  -134.2056847 Eh     change       -0.7705048E-04 Eh
   gradient norm :     0.0062835 Eh/α   predicted    -0.8151081E-04 (   5.79%)
   displ. norm   :     0.2676646 α      lambda       -0.1533968E-03
   maximum displ.:     0.1169025 α      in ANC's #8, #2, #4, ...

........................................................................
.............................. CYCLE   26 ..............................
........................................................................
   1   -135.5685224 -0.135569E+03  0.609E-02    0.56       0.0  T
   2   -135.5685251 -0.266333E-05  0.388E-02    0.56       1.0  T
   3   -135.5685146  0.104600E-04  0.350E-02    0.56       1.0  T
   4   -135.5684577  0.569570E-04  0.337E-02    0.56       1.0  T
   5   -135.5685262 -0.685222E-04  0.104E-02    0.56       1.1  T
   6   -135.5685324 -0.626546E-05  0.390E-03    0.56       3.0  T
   7   -135.5685328 -0.314774E-06  0.122E-03    0.56       9.6  T
   8   -135.5685328 -0.865987E-08  0.430E-04    0.56      27.4  T
   9   -135.5685328 -0.488660E-08  0.227E-04    0.56      52.0  T
     SCC iter.                  ...        0 min,  0.072 sec
     gradient                   ...        0 min,  0.017 sec
 * total energy  :  -134.2057423 Eh     change       -0.5766631E-04 Eh
   gradient norm :     0.0094863 Eh/α   predicted    -0.8219373E-04 (  42.53%)
   displ. norm   :     0.0853227 α      lambda       -0.8238615E-04
   maximum displ.:     0.0377094 α      in ANC's #4, #7, #2, ...

........................................................................
.............................. CYCLE   27 ..............................
........................................................................
   1   -135.5693388 -0.135569E+03  0.249E-02    0.56       0.0  T
   2   -135.5693400 -0.121049E-05  0.163E-02    0.56       1.0  T
   3   -135.5693386  0.133383E-05  0.134E-02    0.56       1.0  T
   4   -135.5693233  0.153359E-04  0.176E-02    0.56       1.0  T
   5   -135.5693409 -0.175584E-04  0.460E-03    0.56       2.6  T
   6   -135.5693421 -0.121016E-05  0.128E-03    0.56       9.2  T
   7   -135.5693421 -0.577773E-07  0.689E-04    0.56      17.1  T
   8   -135.5693421 -0.187022E-07  0.190E-04    0.56      61.9  T
     SCC iter.                  ...        0 min,  0.064 sec
     gradient                   ...        0 min,  0.017 sec
 * total energy  :  -134.2058101 Eh     change       -0.6774799E-04 Eh
   gradient norm :     0.0048891 Eh/α   predicted    -0.4149321E-04 ( -38.75%)
   displ. norm   :     0.2992344 α      lambda       -0.1465887E-03
   maximum displ.:     0.1343154 α      in ANC's #4, #2, #7, ...

........................................................................
.............................. CYCLE   28 ..............................
........................................................................
   1   -135.5699409 -0.135570E+03  0.717E-02    0.57       0.0  T
   2   -135.5699438 -0.289707E-05  0.453E-02    0.57       1.0  T
   3   -135.5698930  0.507883E-04  0.457E-02    0.56       1.0  T
   4   -135.5697589  0.134038E-03  0.540E-02    0.58       1.0  T
   5   -135.5699525 -0.193586E-03  0.857E-03    0.57       1.4  T
   6   -135.5699550 -0.246676E-05  0.301E-03    0.57       3.9  T
   7   -135.5699552 -0.262374E-06  0.187E-03    0.57       6.3  T
   8   -135.5699554 -0.125069E-06  0.526E-04    0.57      22.4  T
   9   -135.5699554 -0.301887E-08  0.257E-04    0.57      45.9  T
     SCC iter.                  ...        0 min,  0.072 sec
     gradient                   ...        0 min,  0.017 sec
 * total energy  :  -134.2059110 Eh     change       -0.1009196E-03 Eh
   gradient norm :     0.0045959 Eh/α   predicted    -0.7985962E-04 ( -20.87%)
   displ. norm   :     0.2815096 α      lambda       -0.8263193E-04
   maximum displ.:     0.1304974 α      in ANC's #4, #2, #7, ...

........................................................................
.............................. CYCLE   29 ..............................
........................................................................
   1   -135.5697883 -0.135570E+03  0.626E-02    0.58       0.0  T
   2   -135.5697874  0.976857E-06  0.379E-02    0.58       1.0  T
   3   -135.5697030  0.843240E-04  0.452E-02    0.57       1.0  T
   4   -135.5696550  0.480263E-04  0.451E-02    0.58       1.0  T
   5   -135.5697934 -0.138365E-03  0.467E-03    0.58       2.5  T
   6   -135.5697935 -0.866597E-07  0.257E-03    0.58       4.6  T
   7   -135.5697936 -0.111405E-06  0.180E-03    0.58       6.5  T
   8   -135.5697937 -0.103281E-06  0.398E-04    0.58      29.6  T
   9   -135.5697937 -0.767983E-09  0.218E-04    0.58      54.1  T
     SCC iter.                  ...        0 min,  0.072 sec
     gradient                   ...        0 min,  0.017 sec
 * total energy  :  -134.2059794 Eh     change       -0.6844478E-04 Eh
   gradient norm :     0.0072156 Eh/α   predicted    -0.4459245E-04 ( -34.85%)
   displ. norm   :     0.3421927 α      lambda       -0.1208535E-03
   maximum displ.:     0.1651516 α      in ANC's #4, #7, #2, ...

........................................................................
.............................. CYCLE   30 ..............................
........................................................................
   1   -135.5698051 -0.135570E+03  0.764E-02    0.59       0.0  T
   2   -135.5698066 -0.150618E-05  0.448E-02    0.58       1.0  T
   3   -135.5697204  0.861825E-04  0.453E-02    0.58       1.0  T
   4   -135.5696210  0.994735E-04  0.518E-02    0.59       1.0  T
   5   -135.5698123 -0.191289E-03  0.700E-03    0.58       1.7  T
   6   -135.5698126 -0.294062E-06  0.251E-03    0.58       4.7  T
   7   -135.5698125  0.324375E-07  0.182E-03    0.58       6.5  T
   8   -135.5698126 -0.120435E-06  0.566E-04    0.58      20.8  T
   9   -135.5698127 -0.106683E-07  0.315E-04    0.58      37.4  T
     SCC iter.                  ...        0 min,  0.072 sec
     gradient                   ...        0 min,  0.017 sec
 * total energy  :  -134.2060814 Eh     change       -0.1019808E-03 Eh
   gradient norm :     0.0065764 Eh/α   predicted    -0.6750682E-04 ( -33.80%)
   displ. norm   :     0.4848332 α      lambda       -0.1677158E-03
   maximum displ.:     0.2390152 α      in ANC's #4, #7, #2, ...

........................................................................
.............................. CYCLE   31 ..............................
........................................................................
   1   -135.5669557 -0.135567E+03  0.112E-01    0.60       0.0  T
   2   -135.5669641 -0.837071E-05  0.647E-02    0.60       1.0  T
   3   -135.5668703  0.937415E-04  0.551E-02    0.59       1.0  T
   4   -135.5667098  0.160542E-03  0.593E-02    0.61       1.0  T
   5   -135.5669700 -0.260211E-03  0.127E-02    0.60       1.0  T
   6   -135.5669738 -0.378087E-05  0.362E-03    0.60       3.3  T
   7   -135.5669737  0.655129E-07  0.269E-03    0.60       4.4  T
   8   -135.5669740 -0.233129E-06  0.845E-04    0.60      13.9  T
   9   -135.5669740 -0.198355E-07  0.383E-04    0.60      30.8  T
     SCC iter.                  ...        0 min,  0.071 sec
     gradient                   ...        0 min,  0.017 sec
 * total energy  :  -134.2062079 Eh     change       -0.1265078E-03 Eh
   gradient norm :     0.0075795 Eh/α   predicted    -0.1035730E-03 ( -18.13%)
   displ. norm   :     0.3823284 α      lambda       -0.1872154E-03
   maximum displ.:     0.2030836 α      in ANC's #4, #7, #2, ...

........................................................................
.............................. CYCLE   32 ..............................
........................................................................
   1   -135.5690832 -0.135569E+03  0.820E-02    0.61       0.0  T
   2   -135.5690865 -0.336722E-05  0.527E-02    0.60       1.0  T
   3   -135.5690602  0.263017E-04  0.513E-02    0.61       1.0  T
   4   -135.5690208  0.394146E-04  0.385E-02    0.60       1.0  T
   5   -135.5690595 -0.386893E-04  0.225E-02    0.61       1.0  T
   6   -135.5690982 -0.386655E-04  0.485E-03    0.61       2.4  T
   7   -135.5690995 -0.133305E-05  0.185E-03    0.61       6.4  T
   8   -135.5690996 -0.589365E-07  0.120E-03    0.61       9.8  T
   9   -135.5690996 -0.170015E-07  0.312E-04    0.61      37.7  T
  10   -135.5690996  0.863167E-09  0.257E-04    0.61      45.9  T
     SCC iter.                  ...        0 min,  0.079 sec
     gradient                   ...        0 min,  0.017 sec
 * total energy  :  -134.2063201 Eh     change       -0.1121357E-03 Eh
   gradient norm :     0.0062996 Eh/α   predicted    -0.1072944E-03 (  -4.32%)
   displ. norm   :     0.4448422 α      lambda       -0.1699736E-03
   maximum displ.:     0.2378867 α      in ANC's #4, #7, #2, ...

........................................................................
.............................. CYCLE   33 ..............................
........................................................................
   1   -135.5639631 -0.135564E+03  0.108E-01    0.62       0.0  T
   2   -135.5639745 -0.114661E-04  0.616E-02    0.62       1.0  T
   3   -135.5639415  0.330492E-04  0.386E-02    0.62       1.0  T
   4   -135.5639008  0.406401E-04  0.350E-02    0.61       1.0  T
   5   -135.5639676 -0.667733E-04  0.154E-02    0.62       1.0  T
   6   -135.5639827 -0.151039E-04  0.282E-03    0.62       4.2  T
   7   -135.5639825  0.183478E-06  0.211E-03    0.62       5.6  T
   8   -135.5639828 -0.240715E-06  0.639E-04    0.62      18.4  T
   9   -135.5639828 -0.349394E-08  0.320E-04    0.62      36.8  T
     SCC iter.                  ...        0 min,  0.071 sec
     gradient                   ...        0 min,  0.017 sec
 * total energy  :  -134.2064244 Eh     change       -0.1043653E-03 Eh
   gradient norm :     0.0104214 Eh/α   predicted    -0.1018076E-03 (  -2.45%)
   displ. norm   :     0.2213931 α      lambda       -0.2246295E-03
   maximum displ.:     0.1251580 α      in ANC's #4, #7, #9, ...

........................................................................
.............................. CYCLE   34 ..............................
........................................................................
   1   -135.5662120 -0.135566E+03  0.506E-02    0.62       0.0  T
   2   -135.5662073  0.473390E-05  0.299E-02    0.62       1.0  T
   3   -135.5659691  0.238262E-03  0.561E-02    0.63       1.0  T
   4   -135.5661967 -0.227645E-03  0.218E-02    0.62       1.0  T
   5   -135.5662172 -0.205283E-04  0.738E-03    0.62       1.6  T
   6   -135.5662185 -0.127885E-05  0.155E-03    0.62       7.6  T
   7   -135.5662185  0.531008E-08  0.102E-03    0.62      11.6  T
   8   -135.5662186 -0.547846E-07  0.369E-04    0.62      31.9  T
   9   -135.5662186 -0.413161E-08  0.219E-04    0.62      53.8  T
     SCC iter.                  ...        0 min,  0.071 sec
     gradient                   ...        0 min,  0.017 sec
 * total energy  :  -134.2065876 Eh     change       -0.1632062E-03 Eh
   gradient norm :     0.0067336 Eh/α   predicted    -0.1178229E-03 ( -27.81%)
   displ. norm   :     0.4120212 α      lambda       -0.2227759E-03
   maximum displ.:     0.2441306 α      in ANC's #4, #7, #2, ...

........................................................................
.............................. CYCLE   35 ..............................
........................................................................
   1   -135.5668011 -0.135567E+03  0.889E-02    0.63       0.0  T
   2   -135.5668117 -0.106045E-04  0.512E-02    0.63       1.0  T
   3   -135.5667971  0.146424E-04  0.338E-02    0.63       1.0  T
   4   -135.5668220 -0.249261E-04  0.105E-02    0.63       1.1  T
   5   -135.5668219  0.709193E-07  0.640E-03    0.63       1.8  T
   6   -135.5668217  0.210414E-06  0.493E-03    0.63       2.4  T
   7   -135.5668222 -0.529362E-06  0.341E-03    0.63       3.5  T
   8   -135.5668230 -0.754626E-06  0.888E-04    0.63      13.3  T
   9   -135.5668231 -0.532393E-07  0.370E-04    0.63      31.8  T
     SCC iter.                  ...        0 min,  0.071 sec
     gradient                   ...        0 min,  0.017 sec
 * total energy  :  -134.2067512 Eh     change       -0.1635536E-03 Eh
   gradient norm :     0.0080080 Eh/α   predicted    -0.1302983E-03 ( -20.33%)
   displ. norm   :     0.4434329 α      lambda       -0.2529446E-03
   maximum displ.:     0.2719536 α      in ANC's #4, #7, #2, ...

........................................................................
.............................. CYCLE   36 ..............................
........................................................................
   1   -135.5695438 -0.135570E+03  0.885E-02    0.64       0.0  T
   2   -135.5695330  0.108128E-04  0.566E-02    0.65       1.0  T
   3   -135.5692644  0.268626E-03  0.773E-02    0.66       1.0  T
   4   -135.5694289 -0.164569E-03  0.505E-02    0.64       1.0  T
   5   -135.5695355 -0.106522E-03  0.244E-02    0.65       1.0  T
   6   -135.5695817 -0.462605E-04  0.369E-03    0.65       3.2  T
   7   -135.5695822 -0.521579E-06  0.221E-03    0.65       5.3  T
   8   -135.5695825 -0.269341E-06  0.849E-04    0.65      13.9  T
   9   -135.5695825 -0.155930E-07  0.376E-04    0.65      31.3  T
     SCC iter.                  ...        0 min,  0.071 sec
     gradient                   ...        0 min,  0.017 sec
 * total energy  :  -134.2068978 Eh     change       -0.1465796E-03 Eh
   gradient norm :     0.0077040 Eh/α   predicted    -0.1513436E-03 (   3.25%)
   displ. norm   :     0.5407625 α      lambda       -0.2252453E-03
   maximum displ.:     0.3332005 α      in ANC's #4, #7, #2, ...

........................................................................
.............................. CYCLE   37 ..............................
........................................................................
   1   -135.5653616 -0.135565E+03  0.106E-01    0.67       0.0  T
   2   -135.5653468  0.148156E-04  0.677E-02    0.67       1.0  T
   3   -135.5648721  0.474641E-03  0.920E-02    0.65       1.0  T
   4   -135.5649741 -0.101991E-03  0.788E-02    0.69       1.0  T
   5   -135.5653951 -0.421009E-03  0.978E-03    0.67       1.2  T
   6   -135.5653976 -0.243375E-05  0.405E-03    0.67       2.9  T
   7   -135.5653978 -0.248163E-06  0.231E-03    0.67       5.1  T
   8   -135.5653979 -0.141450E-06  0.566E-04    0.67      20.8  T
   9   -135.5653979  0.476376E-08  0.508E-04    0.67      23.2  T
     SCC iter.                  ...        0 min,  0.070 sec
     gradient                   ...        0 min,  0.017 sec
 * total energy  :  -134.2070457 Eh     change       -0.1479042E-03 Eh
   gradient norm :     0.0096225 Eh/α   predicted    -0.1455584E-03 (  -1.59%)
   displ. norm   :     0.2841947 α      lambda       -0.3148679E-03
   maximum displ.:     0.1835985 α      in ANC's #4, #16, #9, ...

........................................................................
.............................. CYCLE   38 ..............................
........................................................................
   1   -135.5751297 -0.135575E+03  0.948E-02    0.69       0.0  T
   2   -135.5750968  0.328753E-04  0.697E-02    0.69       1.0  T
   3   -135.5748842  0.212603E-03  0.812E-02    0.67       1.0  T
   4   -135.5752218 -0.337554E-03  0.360E-02    0.69       1.0  T
   5   -135.5752840 -0.622603E-04  0.129E-02    0.68       1.0  T
   6   -135.5752920 -0.796807E-05  0.618E-03    0.69       1.9  T
   7   -135.5752933 -0.125810E-05  0.270E-03    0.69       4.4  T
   8   -135.5752933 -0.416756E-07  0.134E-03    0.69       8.8  T
   9   -135.5752934 -0.930378E-07  0.515E-04    0.69      22.9  T
  10   -135.5752934 -0.165460E-08  0.274E-04    0.69      42.9  T
     SCC iter.                  ...        0 min,  0.079 sec
     gradient                   ...        0 min,  0.017 sec
 * total energy  :  -134.2068624 Eh     change        0.1833165E-03 Eh
   gradient norm :     0.0347824 Eh/α   predicted    -0.1701515E-03 (-192.82%)
   displ. norm   :     0.1696687 α      lambda       -0.6640477E-03
   maximum displ.:     0.0877585 α      in ANC's #4, #7, #2, ...

........................................................................
.............................. CYCLE   39 ..............................
........................................................................
   1   -135.5676565 -0.135568E+03  0.908E-02    0.69       0.0  T
   2   -135.5676759 -0.193741E-04  0.592E-02    0.69       1.0  T
   3   -135.5676023  0.736037E-04  0.582E-02    0.70       1.0  T
   4   -135.5676727 -0.704187E-04  0.458E-02    0.69       1.0  T
   5   -135.5677889 -0.116219E-03  0.141E-02    0.70       1.0  T
   6   -135.5677980 -0.911452E-05  0.446E-03    0.70       2.6  T
   7   -135.5677983 -0.276302E-06  0.247E-03    0.70       4.8  T
   8   -135.5677983  0.163930E-07  0.143E-03    0.70       8.3  T
   9   -135.5677984 -0.138697E-06  0.367E-04    0.70      32.1  T
  10   -135.5677984 -0.621526E-09  0.283E-04    0.70      41.7  T
     SCC iter.                  ...        0 min,  0.078 sec
     gradient                   ...        0 min,  0.017 sec
 * total energy  :  -134.2072443 Eh     change       -0.3819843E-03 Eh
   gradient norm :     0.0057263 Eh/α   predicted    -0.3415860E-03 ( -10.58%)
   displ. norm   :     0.3703345 α      lambda       -0.1327530E-03
   maximum displ.:     0.2450845 α      in ANC's #4, #7, #2, ...

........................................................................
.............................. CYCLE   40 ..............................
........................................................................
   1   -135.5654969 -0.135565E+03  0.730E-02    0.71       0.0  T
   2   -135.5654961  0.761937E-06  0.435E-02    0.72       1.0  T
   3   -135.5653298  0.166277E-03  0.582E-02    0.70       1.0  T
   4   -135.5653457 -0.158174E-04  0.464E-02    0.72       1.0  T
   5   -135.5655082 -0.162494E-03  0.641E-03    0.72       1.8  T
   6   -135.5655091 -0.935653E-06  0.238E-03    0.72       4.9  T
   7   -135.5655091  0.153554E-07  0.140E-03    0.72       8.4  T
   8   -135.5655091 -0.545032E-07  0.555E-04    0.72      21.2  T
   9   -135.5655091 -0.893155E-08  0.237E-04    0.72      49.8  T
     SCC iter.                  ...        0 min,  0.082 sec
     gradient                   ...        0 min,  0.019 sec
 * total energy  :  -134.2073392 Eh     change       -0.9481370E-04 Eh
   gradient norm :     0.0099343 Eh/α   predicted    -0.7548220E-04 ( -20.39%)
   displ. norm   :     0.3124531 α      lambda       -0.2016932E-03
   maximum displ.:     0.2106726 α      in ANC's #4, #7, #2, ...

........................................................................
.............................. CYCLE   41 ..............................
........................................................................
   1   -135.5674001 -0.135567E+03  0.682E-02    0.73       0.0  T
   2   -135.5674080 -0.791922E-05  0.464E-02    0.73       1.0  T
   3   -135.5674126 -0.458474E-05  0.319E-02    0.73       1.0  T
   4   -135.5673503  0.622803E-04  0.366E-02    0.74       1.0  T
   5   -135.5674071 -0.567654E-04  0.134E-02    0.73       1.0  T
   6   -135.5674211 -0.140010E-04  0.376E-03    0.73       3.1  T
   7   -135.5674217 -0.646576E-06  0.134E-03    0.73       8.8  T
   8   -135.5674217  0.738544E-08  0.859E-04    0.73      13.7  T
   9   -135.5674217 -0.448270E-07  0.252E-04    0.73      46.7  T
     SCC iter.                  ...        0 min,  0.075 sec
     gradient                   ...        0 min,  0.017 sec
 * total energy  :  -134.2074694 Eh     change       -0.1302314E-03 Eh
   gradient norm :     0.0133646 Eh/α   predicted    -0.1106936E-03 ( -15.00%)
   displ. norm   :     0.4348852 α      lambda       -0.1792724E-03
   maximum displ.:     0.2925642 α      in ANC's #4, #7, #2, ...

........................................................................
.............................. CYCLE   42 ..............................
........................................................................
   1   -135.5669064 -0.135567E+03  0.819E-02    0.75       0.0  T
   2   -135.5668761  0.302558E-04  0.603E-02    0.76       1.0  T
   3   -135.5666652  0.210937E-03  0.763E-02    0.75       1.0  T
   4   -135.5666667 -0.153122E-05  0.582E-02    0.77       1.0  T
   5   -135.5669229 -0.256131E-03  0.106E-02    0.76       1.1  T
   6   -135.5669297 -0.684664E-05  0.349E-03    0.76       3.4  T
   7   -135.5669300 -0.329794E-06  0.165E-03    0.76       7.1  T
   8   -135.5669301 -0.232091E-07  0.670E-04    0.76      17.6  T
   9   -135.5669301 -0.902264E-08  0.259E-04    0.76      45.6  T
     SCC iter.                  ...        0 min,  0.070 sec
     gradient                   ...        0 min,  0.017 sec
 * total energy  :  -134.2076025 Eh     change       -0.1331025E-03 Eh
   gradient norm :     0.0100780 Eh/α   predicted    -0.1065917E-03 ( -19.92%)
   displ. norm   :     0.3027055 α      lambda       -0.2034647E-03
   maximum displ.:     0.2028644 α      in ANC's #4, #7, #2, ...
 * RMSD in coord.:     0.6590604 α      energy gain  -0.2280345E-02 Eh

generating ANC from model Hessian ...
Using Lindh-Hessian (1995)
 Shifting diagonal of input Hessian by   1.012518859653801E-002
 Lowest  eigenvalues of input Hessian
    0.010000   -0.000000    0.000000    0.000000    0.000000    0.000000
    0.000000    0.000000    0.000000    0.000000    0.010263    0.010320
    0.010436    0.010534    0.010627    0.010793    0.010824    0.011061
 Highest eigenvalues
    1.858692    1.893936    2.007241    2.061463    2.798083    2.825415
 

........................................................................
.............................. CYCLE   43 ..............................
........................................................................
   1   -135.5731546 -0.135573E+03  0.677E-02    0.77       0.0  T
   2   -135.5731492  0.543183E-05  0.525E-02    0.78       1.0  T
   3   -135.5731113  0.378450E-04  0.483E-02    0.77       1.0  T
   4   -135.5730077  0.103562E-03  0.493E-02    0.78       1.0  T
   5   -135.5731691 -0.161375E-03  0.161E-02    0.77       1.0  T
   6   -135.5731894 -0.202854E-04  0.348E-03    0.77       3.4  T
   7   -135.5731897 -0.268020E-06  0.182E-03    0.77       6.5  T
   8   -135.5731897 -0.721298E-08  0.846E-04    0.77      13.9  T
   9   -135.5731897 -0.251228E-07  0.283E-04    0.77      41.7  T
     SCC iter.                  ...        0 min,  0.071 sec
     gradient                   ...        0 min,  0.017 sec
 * total energy  :  -134.2077062 Eh     change       -0.1036889E-03 Eh
   gradient norm :     0.0075425 Eh/α   predicted     0.0000000E+00 (-100.00%)
   displ. norm   :     0.0781833 α      lambda       -0.1376227E-03
   maximum displ.:     0.0364033 α      in ANC's #3, #12, #40, ...

........................................................................
.............................. CYCLE   44 ..............................
........................................................................
   1   -135.5708247 -0.135571E+03  0.404E-02    0.77       0.0  T
   2   -135.5708192  0.545258E-05  0.238E-02    0.77       1.0  T
   3   -135.5707020  0.117261E-03  0.408E-02    0.78       1.0  T
   4   -135.5708211 -0.119150E-03  0.177E-02    0.77       1.0  T
   5   -135.5708310 -0.990522E-05  0.681E-03    0.77       1.7  T
   6   -135.5708319 -0.900393E-06  0.144E-03    0.77       8.2  T
   7   -135.5708320 -0.233544E-07  0.947E-04    0.77      12.5  T
   8   -135.5708320 -0.115882E-07  0.322E-04    0.77      36.6  T
     SCC iter.                  ...        0 min,  0.063 sec
     gradient                   ...        0 min,  0.017 sec
 * total energy  :  -134.2078086 Eh     change       -0.1024457E-03 Eh
   gradient norm :     0.0027663 Eh/α   predicted    -0.6923272E-04 ( -32.42%)
   displ. norm   :     0.2892464 α      lambda       -0.3234537E-03
   maximum displ.:     0.1549363 α      in ANC's #3, #5, #10, ...

........................................................................
.............................. CYCLE   45 ..............................
........................................................................
   1   -135.5643643 -0.135564E+03  0.111E-01    0.78       0.0  T
   2   -135.5643495  0.147653E-04  0.628E-02    0.78       1.0  T
   3   -135.5636919  0.657626E-03  0.997E-02    0.80       1.0  T
   4   -135.5642685 -0.576601E-03  0.507E-02    0.77       1.0  T
   5   -135.5643879 -0.119394E-03  0.795E-03    0.78       1.5  T
   6   -135.5643874  0.501822E-06  0.670E-03    0.78       1.8  T
   7   -135.5643878 -0.397288E-06  0.372E-03    0.78       3.2  T
   8   -135.5643889 -0.117818E-05  0.653E-04    0.78      18.1  T
   9   -135.5643889 -0.100061E-08  0.539E-04    0.78      21.8  T
  10   -135.5643889 -0.988223E-09  0.302E-04    0.78      39.1  T
     SCC iter.                  ...        0 min,  0.082 sec
     gradient                   ...        0 min,  0.023 sec
 * total energy  :  -134.2079461 Eh     change       -0.1375179E-03 Eh
   gradient norm :     0.0151617 Eh/α   predicted    -0.1752583E-03 (  27.44%)
   displ. norm   :     0.1648491 α      lambda       -0.2279707E-03
   maximum displ.:     0.0845705 α      in ANC's #3, #12, #11, ...

........................................................................
.............................. CYCLE   46 ..............................
........................................................................
   1   -135.5653965 -0.135565E+03  0.569E-02    0.79       0.0  T
   2   -135.5653802  0.163413E-04  0.404E-02    0.79       1.0  T
   3   -135.5652711  0.109114E-03  0.464E-02    0.78       1.0  T
   4   -135.5652789 -0.777808E-05  0.482E-02    0.80       1.0  T
   5   -135.5654052 -0.126317E-03  0.996E-03    0.79       1.2  T
   6   -135.5654068 -0.160213E-05  0.235E-03    0.79       5.0  T
   7   -135.5654069 -0.897539E-07  0.128E-03    0.79       9.2  T
   8   -135.5654069 -0.697184E-07  0.560E-04    0.79      21.1  T
   9   -135.5654070 -0.585680E-08  0.234E-04    0.79      50.4  T
     SCC iter.                  ...        0 min,  0.082 sec
     gradient                   ...        0 min,  0.023 sec
 * total energy  :  -134.2081058 Eh     change       -0.1596576E-03 Eh
   gradient norm :     0.0138095 Eh/α   predicted    -0.1170861E-03 ( -26.66%)
   displ. norm   :     0.3070201 α      lambda       -0.3881395E-03
   maximum displ.:     0.1690231 α      in ANC's #3, #11, #12, ...

........................................................................
.............................. CYCLE   47 ..............................
........................................................................
   1   -135.5695691 -0.135570E+03  0.995E-02    0.81       0.0  T
   2   -135.5694698  0.993055E-04  0.769E-02    0.82       1.0  T
   3   -135.5690984  0.371439E-03  0.883E-02    0.79       1.0  T
   4   -135.5693392 -0.240846E-03  0.769E-02    0.82       1.0  T
   5   -135.5696259 -0.286720E-03  0.176E-02    0.81       1.0  T
   6   -135.5696287 -0.278082E-05  0.391E-03    0.81       3.0  T
   7   -135.5696290 -0.240904E-06  0.189E-03    0.81       6.2  T
   8   -135.5696290 -0.356488E-07  0.114E-03    0.81      10.3  T
   9   -135.5696290 -0.488572E-07  0.535E-04    0.81      22.0  T
  10   -135.5696291 -0.953546E-08  0.211E-04    0.81      55.8  T
     SCC iter.                  ...        0 min,  0.081 sec
     gradient                   ...        0 min,  0.019 sec
 * total energy  :  -134.2083096 Eh     change       -0.2038500E-03 Eh
   gradient norm :     0.0066158 Eh/α   predicted    -0.2123748E-03 (   4.18%)
   displ. norm   :     0.4314061 α      lambda       -0.5040474E-03
   maximum displ.:     0.2531381 α      in ANC's #3, #5, #12, ...

........................................................................
.............................. CYCLE   48 ..............................
........................................................................
   1   -135.5704082 -0.135570E+03  0.151E-01    0.84       0.0  T
   2   -135.5703755  0.326858E-04  0.101E-01    0.85       1.0  T
   3   -135.5698350  0.540554E-03  0.106E-01    0.83       1.0  T
   4   -135.5697675  0.675057E-04  0.117E-01    0.87       1.0  T
   5   -135.5705647 -0.797245E-03  0.281E-02    0.84       1.0  T
   6   -135.5705863 -0.215880E-04  0.771E-03    0.85       1.5  T
   7   -135.5705872 -0.919020E-06  0.342E-03    0.85       3.4  T
   8   -135.5705873 -0.208847E-07  0.167E-03    0.85       7.1  T
   9   -135.5705874 -0.103574E-06  0.808E-04    0.85      14.6  T
  10   -135.5705874 -0.365569E-07  0.339E-04    0.85      34.7  T
     SCC iter.                  ...        0 min,  0.091 sec
     gradient                   ...        0 min,  0.019 sec
 * total energy  :  -134.2085191 Eh     change       -0.2094145E-03 Eh
   gradient norm :     0.0173757 Eh/α   predicted    -0.2989288E-03 (  42.75%)
   displ. norm   :     0.1768159 α      lambda       -0.2727818E-03
   maximum displ.:     0.0984844 α      in ANC's #3, #11, #4, ...

........................................................................
.............................. CYCLE   49 ..............................
........................................................................
   1   -135.5667258 -0.135567E+03  0.836E-02    0.85       0.0  T
   2   -135.5667391 -0.132066E-04  0.457E-02    0.86       1.0  T
   3   -135.5666811  0.579958E-04  0.414E-02    0.87       1.0  T
   4   -135.5665256  0.155437E-03  0.580E-02    0.85       1.0  T
   5   -135.5667555 -0.229834E-03  0.677E-03    0.86       1.7  T
   6   -135.5667570 -0.151182E-05  0.247E-03    0.86       4.8  T
   7   -135.5667570 -0.106983E-07  0.188E-03    0.86       6.3  T
   8   -135.5667571 -0.999965E-07  0.641E-04    0.86      18.4  T
   9   -135.5667571 -0.269883E-07  0.308E-04    0.86      38.2  T
     SCC iter.                  ...        0 min,  0.086 sec
     gradient                   ...        0 min,  0.018 sec
 * total energy  :  -134.2086662 Eh     change       -0.1470971E-03 Eh
   gradient norm :     0.0145528 Eh/α   predicted    -0.1406585E-03 (  -4.38%)
   displ. norm   :     0.2522580 α      lambda       -0.7287197E-03
   maximum displ.:     0.1201312 α      in ANC's #4, #19, #5, ...

........................................................................
.............................. CYCLE   50 ..............................
........................................................................
   1   -135.5747641 -0.135575E+03  0.875E-02    0.86       0.0  T
   2   -135.5747196  0.444864E-04  0.769E-02    0.86       1.0  T
   3   -135.5746639  0.556845E-04  0.602E-02    0.87       1.0  T
   4   -135.5745399  0.124053E-03  0.733E-02    0.85       1.0  T
   5   -135.5748637 -0.323852E-03  0.231E-02    0.86       1.0  T
   6   -135.5748726 -0.884049E-05  0.535E-03    0.86       2.2  T
   7   -135.5748733 -0.794548E-06  0.274E-03    0.86       4.3  T
   8   -135.5748733  0.526647E-07  0.198E-03    0.86       5.9  T
   9   -135.5748735 -0.202455E-06  0.724E-04    0.86      16.3  T
  10   -135.5748735 -0.114232E-07  0.531E-04    0.86      22.2  T
     SCC iter.                  ...        0 min,  0.082 sec
     gradient                   ...        0 min,  0.017 sec
 * total energy  :  -134.2085571 Eh     change        0.1090141E-03 Eh
   gradient norm :     0.0179408 Eh/α   predicted    -0.3875462E-03 (-455.50%)
   displ. norm   :     0.2465063 α      lambda       -0.7500998E-03
   maximum displ.:     0.1431952 α      in ANC's #3, #5, #10, ...

........................................................................
.............................. CYCLE   51 ..............................
........................................................................
   1   -135.5695704 -0.135570E+03  0.881E-02    0.88       0.0  T
   2   -135.5694484  0.121985E-03  0.773E-02    0.90       1.0  T
   3   -135.5692201  0.228314E-03  0.849E-02    0.88       1.0  T
   4   -135.5695185 -0.298333E-03  0.558E-02    0.90       1.0  T
   5   -135.5696752 -0.156750E-03  0.141E-02    0.89       1.0  T
   6   -135.5696789 -0.368689E-05  0.494E-03    0.89       2.4  T
   7   -135.5696791 -0.248973E-06  0.261E-03    0.89       4.5  T
   8   -135.5696790  0.119634E-06  0.187E-03    0.89       6.3  T
   9   -135.5696793 -0.264091E-06  0.552E-04    0.89      21.4  T
  10   -135.5696793 -0.934392E-09  0.481E-04    0.89      24.5  T
     SCC iter.                  ...        0 min,  0.078 sec
     gradient                   ...        0 min,  0.017 sec
 * total energy  :  -134.2090067 Eh     change       -0.4495780E-03 Eh
   gradient norm :     0.0057847 Eh/α   predicted    -0.3978478E-03 ( -11.51%)
   displ. norm   :     0.2336666 α      lambda       -0.1401368E-03
   maximum displ.:     0.1512573 α      in ANC's #3, #4, #11, ...

........................................................................
.............................. CYCLE   52 ..............................
........................................................................
   1   -135.5677340 -0.135568E+03  0.775E-02    0.91       0.0  T
   2   -135.5676870  0.469775E-04  0.536E-02    0.93       1.0  T
   3   -135.5670812  0.605730E-03  0.101E-01    0.90       1.0  T
   4   -135.5677213 -0.640064E-03  0.289E-02    0.93       1.0  T
   5   -135.5677593 -0.379654E-04  0.677E-03    0.92       1.7  T
   6   -135.5677601 -0.862825E-06  0.463E-03    0.92       2.5  T
   7   -135.5677612 -0.109749E-05  0.197E-03    0.92       6.0  T
   8   -135.5677615 -0.255122E-06  0.888E-04    0.92      13.3  T
   9   -135.5677615 -0.290402E-07  0.470E-04    0.92      25.1  T
     SCC iter.                  ...        0 min,  0.072 sec
     gradient                   ...        0 min,  0.017 sec
 * total energy  :  -134.2090907 Eh     change       -0.8399628E-04 Eh
   gradient norm :     0.0091095 Eh/α   predicted    -0.7389697E-04 ( -12.02%)
   displ. norm   :     0.1298618 α      lambda       -0.1484537E-03
   maximum displ.:     0.0769115 α      in ANC's #3, #4, #10, ...

........................................................................
.............................. CYCLE   53 ..............................
........................................................................
[...]
  89:  0.00  90:  0.00  91:  0.00  92:  0.00  93:  0.00  94:  0.00  95:  0.00  96:  0.00
  97:  0.00  98:  0.00  99:  0.00 100:  0.00 101:  0.00 102:  0.00 103:  0.00 104:  0.00
 105:  0.00 106:  0.00 107:  0.00 108:  0.00 109:  0.00 110:  0.00 111:  0.00 112:  0.00
 113:  0.00 114:  0.00 115:  0.00 116:  0.00 117:  0.00 118:  0.00 119:  0.00 120:  0.00
 121:  0.00 122:  0.00 123:  0.00 124:  0.00 125:  0.00 126:  0.00 127:  0.00 128:  0.00
 129:  0.00 130:  0.00 131:  0.00 132:  0.00 133:  0.00 134:  0.00 135:  0.00 136:  0.00
 137:  0.00 138:  0.00 139:  0.00 140:  0.00 141:  0.00 142:  0.00 143:  0.00 144:  0.00
 145:  0.00 146:  0.00 147:  0.00 148:  0.00 149:  0.00 150:  0.00 151:  0.00 152:  0.00
 153:  0.00 154:  0.00 155:  0.00 156:  0.00 157:  0.00 158:  0.00 159:  0.00 160:  0.00
 161:  0.00 162:  0.00 163:  0.00 164:  0.00 165:  0.00 166:  0.00 167:  0.00 168:  0.00
 169:  0.00 170:  0.00 171:  0.00 172:  0.00 173:  0.00 174:  0.00 175:  0.00 176:  0.00
 177:  0.00 178:  0.00 179:  0.00 180:  0.00 181:  0.00 182:  0.00 183:  0.00 184:  0.00
 185:  0.00 186:  0.00 187:  0.00 188:  0.00 189:  0.00 190:  0.00 191:  0.00 192:  0.00
 193:  0.00 194:  0.00 195:  0.00 196:  0.00 197:  0.00 198:  0.00 199:  0.00 200:  0.00
 201:  0.00 202:  0.00 203:  0.00 204:  0.00 205:  0.00 206:  0.00 207:  0.00 208:  0.00
 209:  0.00 210:  0.00 211:  0.00 212:  0.00 213:  0.00 214:  0.00 215:  0.00 216:  0.00
 output can be read by thermo (or use thermo option).
 writing <g98.out> molden fake output.
 recommended (thermochemical) frequency scaling factor: 1.0
           -------------------------------------------------
          |             Thermodynamic Functions             |
           -------------------------------------------------

Molecule has no symmetry elements
It seems to be the C1 point group
c1  symmetry found (for desy threshold:  0.10E+00) used in thermo

          ...................................................
          :                      SETUP                      :
          :.................................................:
          :  # frequencies                         204      :
          :  # imaginary freq.                       6      :
          :  linear?                             false      :
          :  only rotor calc.                    false      :
          :  symmetry                               c1      :
          :  rotational number                       1      :
          :  scaling factor                  1.0000000      :
          :  rotor cutoff                   50.0000000 cm⁻¹ :
          :  imag. cutoff                  -20.0000000 cm⁻¹ :
          :.................................................:

    mode    ω/cm⁻¹     T·S(HO)/kcal·mol⁻¹    T·S(FR)/kcal·mol⁻¹   T·S(vib)
   ------------------------------------------------------------------------
       1     23.21    -1.88998 (  4.43%)    -1.28392 ( 95.57%)    -1.31080
       2     27.87    -1.78168 (  8.80%)    -1.22971 ( 91.20%)    -1.27828
       3     29.44    -1.74922 ( 10.73%)    -1.21346 ( 89.27%)    -1.27093
       4     36.15    -1.62781 ( 21.46%)    -1.15263 ( 78.54%)    -1.25459
       5     39.09    -1.58162 ( 27.19%)    -1.12947 ( 72.81%)    -1.25242
       6     47.67    -1.46443 ( 45.25%)    -1.07066 ( 54.75%)    -1.24882
       7     55.07    -1.37939 ( 59.54%)    -1.02793 ( 40.46%)    -1.23718
       8     58.79    -1.34088 ( 65.65%)    -1.00855 ( 34.35%)    -1.22674
       9     67.27    -1.26164 ( 76.62%)    -0.96863 ( 23.38%)    -1.19313
      10     72.89    -1.21455 ( 81.88%)    -0.94486 ( 18.12%)    -1.16567
      11     79.27    -1.16540 ( 86.34%)    -0.92001 ( 13.66%)    -1.13187
      12     86.51    -1.11433 ( 89.96%)    -0.89413 ( 10.04%)    -1.09222
      13     91.80    -1.07968 ( 91.91%)    -0.87654 (  8.09%)    -1.06325
      14     97.63    -1.04386 ( 93.56%)    -0.85831 (  6.44%)    -1.03192
      15    102.04    -1.01815 ( 94.55%)    -0.84521 (  5.45%)    -1.00872
      16    125.96    -0.89649 ( 97.58%)    -0.78284 (  2.42%)    -0.89374
      17    126.52    -0.89395 ( 97.62%)    -0.78153 (  2.38%)    -0.89127
      18    134.98    -0.85683 ( 98.15%)    -0.76235 (  1.85%)    -0.85508
      19    141.76    -0.82884 ( 98.48%)    -0.74782 (  1.52%)    -0.82761
      20    148.05    -0.80414 ( 98.72%)    -0.73496 (  1.28%)    -0.80325
      21    157.82    -0.76796 ( 99.00%)    -0.71604 (  1.00%)    -0.76744
      22    166.94    -0.73634 ( 99.20%)    -0.69940 (  0.80%)    -0.73604
      23    167.92    -0.73304 ( 99.22%)    -0.69766 (  0.78%)    -0.73277
      24    190.36    -0.66317 ( 99.53%)    -0.66050 (  0.47%)    -0.66316
      25    198.67    -0.63963 ( 99.60%)    -0.64784 (  0.40%)    -0.63966
      26    205.05    -0.62232 ( 99.65%)    -0.63848 (  0.35%)    -0.62238
      27    219.01    -0.58653 ( 99.73%)    -0.61896 (  0.27%)    -0.58662
      28    229.31    -0.56182 ( 99.77%)    -0.60536 (  0.23%)    -0.56192
      29    238.61    -0.54061 ( 99.81%)    -0.59358 (  0.19%)    -0.54071
      30    248.79    -0.51852 ( 99.84%)    -0.58120 (  0.16%)    -0.51862
      31    250.26    -0.51542 ( 99.84%)    -0.57946 (  0.16%)    -0.51553
      32    254.52    -0.50656 ( 99.85%)    -0.57445 (  0.15%)    -0.50667
      33    259.24    -0.49697 ( 99.86%)    -0.56901 (  0.14%)    -0.49707
      34    269.10    -0.47764 ( 99.88%)    -0.55796 (  0.12%)    -0.47774
      35    281.47    -0.45460 ( 99.90%)    -0.54465 (  0.10%)    -0.45469
      36    284.94    -0.44837 ( 99.91%)    -0.54101 (  0.09%)    -0.44845
      37    291.28    -0.43724 ( 99.91%)    -0.53449 (  0.09%)    -0.43733
      38    299.06    -0.42401 ( 99.92%)    -0.52668 (  0.08%)    -0.42409
   ------------------------------------------------------------------------

   temp. (K)  partition function   enthalpy   heat capacity  entropy
                                   cal/mol     cal/K/mol   cal/K/mol   J/K/mol
 298.15  VIB  0.798E+17            23898.446    151.609    147.590
         ROT  0.448E+08              888.752      2.981     37.993
         INT  0.358E+25            24787.199    154.590    185.583
         TR   0.192E+29             1481.254      4.968     45.634
         TOT                       26268.4525   159.5581   231.2170   967.4117

       T/K    H(0)-H(T)+PV         H(T)/Eh          T*S/Eh         G(T)/Eh
   ------------------------------------------------------------------------
    298.15    0.418614E-01    0.556405E+00    0.109859E+00    0.446546E+00
   ------------------------------------------------------------------------

         :::::::::::::::::::::::::::::::::::::::::::::::::::::
         ::                  THERMODYNAMIC                  ::
         :::::::::::::::::::::::::::::::::::::::::::::::::::::
         :: total free energy        -133.763039265879 Eh   ::
         ::.................................................::
         :: total energy             -134.209585300801 Eh   ::
         :: zero point energy           0.514543228225 Eh   ::
         :: G(RRHO) w/o ZPVE           -0.067997193304 Eh   ::
         :: G(RRHO) contrib.            0.446546034921 Eh   ::
         :::::::::::::::::::::::::::::::::::::::::::::::::::::
imag cut-off (cm-1) :    5.00
 found            6  significant imaginary frequencies
 writing imag mode distorted coords to xtbhess.xyz
 for further optimization.

optimized geometry written to: xtbopt.xyz


           -------------------------------------------------
          | TOTAL ENERGY             -134.209585300801 Eh   |
          | TOTAL ENTHALPY           -133.653180628910 Eh   |
          | TOTAL FREE ENERGY        -133.763039265879 Eh   |
          | GRADIENT NORM               0.000787466874 Eh/α |
          | HOMO-LUMO GAP               0.908422132992 eV   |
           -------------------------------------------------
########################################################################
[WARNING] Runtime exception occurred
-120- hessian_numhess: Hessian element  215 3  is not symmetric:  -3.019180E-02   0.000000E+00
-119- hessian_numhess: Hessian element  215 2  is not symmetric:  -1.827650E-02   0.000000E+00
-118- hessian_numhess: Hessian element  54 6  is not symmetric:  -1.633375E-02   0.000000E+00
-117- hessian_numhess: Hessian element  54 5  is not symmetric:  -1.999135E-02   0.000000E+00
-116- hessian_numhess: Hessian element  52 6  is not symmetric:   1.062682E-02   0.000000E+00
-115- hessian_numhess: Hessian element  52 5  is not symmetric:   1.200287E-02   0.000000E+00
-114- hessian_numhess: Hessian element  44 5  is not symmetric:  -1.331354E-02   0.000000E+00
-113- hessian_numhess: Hessian element  26 5  is not symmetric:  -1.218663E-02   0.000000E+00
-112- hessian_numhess: Hessian element  24 6  is not symmetric:  -4.641901E-02   0.000000E+00
-111- hessian_numhess: Hessian element  23 6  is not symmetric:  -1.377313E-02   0.000000E+00
-110- hessian_numhess: Hessian element  23 5  is not symmetric:  -3.097967E-02   0.000000E+00
-109- hessian_numhess: Hessian element  22 6  is not symmetric:  -1.048287E-02   0.000000E+00
-108- hessian_numhess: Hessian element  22 4  is not symmetric:  -2.118203E-02   0.000000E+00
-107- hessian_numhess: Hessian element  21 6  is not symmetric:  -3.926628E-02   0.000000E+00
-106- hessian_numhess: Hessian element  21 5  is not symmetric:   2.197989E-02   0.000000E+00
-105- hessian_numhess: Hessian element  21 4  is not symmetric:  -1.170945E-02   0.000000E+00
-104- hessian_numhess: Hessian element  20 6  is not symmetric:   2.988740E-02   0.000000E+00
-103- hessian_numhess: Hessian element  20 5  is not symmetric:  -3.057886E-02   0.000000E+00
-102- hessian_numhess: Hessian element  19 4  is not symmetric:  -1.533970E-02   0.000000E+00
-101- hessian_numhess: Hessian element  18 6  is not symmetric:  -1.347296E-02   0.000000E+00
-100- hessian_numhess: Hessian element  18 5  is not symmetric:   1.298211E-02   0.000000E+00
-99- hessian_numhess: Hessian element  18 4  is not symmetric:  -1.295539E-02   0.000000E+00
-98- hessian_numhess: Hessian element  17 6  is not symmetric:   1.598571E-02   0.000000E+00
-97- hessian_numhess: Hessian element  17 5  is not symmetric:  -4.058582E-02   0.000000E+00
-96- hessian_numhess: Hessian element  17 4  is not symmetric:   1.059869E-02   0.000000E+00
-95- hessian_numhess: Hessian element  16 6  is not symmetric:  -1.151070E-02   0.000000E+00
-94- hessian_numhess: Hessian element  16 5  is not symmetric:   1.074209E-02   0.000000E+00
-93- hessian_numhess: Hessian element  16 4  is not symmetric:  -1.924127E-02   0.000000E+00
-92- hessian_numhess: Hessian element  15 6  is not symmetric:  -3.001851E-02   0.000000E+00
-91- hessian_numhess: Hessian element  15 4  is not symmetric:  -1.324871E-02   0.000000E+00
-90- hessian_numhess: Hessian element  14 6  is not symmetric:  -1.638632E-02   0.000000E+00
-89- hessian_numhess: Hessian element  14 5  is not symmetric:  -3.288094E-02   0.000000E+00
-88- hessian_numhess: Hessian element  14 4  is not symmetric:  -2.942073E-02   0.000000E+00
-87- hessian_numhess: Hessian element  14 3  is not symmetric:   1.279267E-02   0.000000E+00
-86- hessian_numhess: Hessian element  14 1  is not symmetric:  -1.885504E-02   0.000000E+00
-85- hessian_numhess: Hessian element  13 5  is not symmetric:  -1.380304E-02   0.000000E+00
-84- hessian_numhess: Hessian element  13 4  is not symmetric:  -4.101694E-02   0.000000E+00
-83- hessian_numhess: Hessian element  13 2  is not symmetric:  -1.007609E-02   0.000000E+00
-82- hessian_numhess: Hessian element  12 6  is not symmetric:  -2.267261E-02   0.000000E+00
-81- hessian_numhess: Hessian element  12 2  is not symmetric:   1.157201E-02   0.000000E+00
-80- hessian_numhess: Hessian element  11 6  is not symmetric:  -1.012972E-02   0.000000E+00
-79- hessian_numhess: Hessian element  11 5  is not symmetric:  -4.427566E-02   0.000000E+00
-78- hessian_numhess: Hessian element  11 4  is not symmetric:   2.307250E-02   0.000000E+00
-77- hessian_numhess: Hessian element  11 3  is not symmetric:   1.114118E-02   0.000000E+00
-76- hessian_numhess: Hessian element  11 2  is not symmetric:  -1.443743E-02   0.000000E+00
-75- hessian_numhess: Hessian element  11 1  is not symmetric:   1.761736E-02   0.000000E+00
-74- hessian_numhess: Hessian element  10 6  is not symmetric:  -1.008354E-02   0.000000E+00
-73- hessian_numhess: Hessian element  10 4  is not symmetric:  -2.195450E-02   0.000000E+00
-72- hessian_numhess: Hessian element  9 6  is not symmetric:  -5.333171E-02   0.000000E+00
-71- hessian_numhess: Hessian element  9 5  is not symmetric:  -3.341967E-02   0.000000E+00
-70- hessian_numhess: Hessian element  9 3  is not symmetric:  -3.210226E-02   0.000000E+00
-69- hessian_numhess: Hessian element  9 2  is not symmetric:  -1.169354E-02   0.000000E+00
-68- hessian_numhess: Hessian element  8 6  is not symmetric:  -7.511094E-02   0.000000E+00
-67- hessian_numhess: Hessian element  8 5  is not symmetric:  -2.397428E-02   0.000000E+00
-66- hessian_numhess: Hessian element  8 3  is not symmetric:   2.717915E-02   0.000000E+00
-65- hessian_numhess: Hessian element  8 2  is not symmetric:  -1.111768E-01   0.000000E+00
-64- hessian_numhess: Hessian element  8 1  is not symmetric:  -1.327995E-02   0.000000E+00
-63- hessian_numhess: Hessian element  7 6  is not symmetric:  -1.833756E-02   0.000000E+00
-62- hessian_numhess: Hessian element  7 2  is not symmetric:  -1.697915E-02   0.000000E+00
-61- hessian_numhess: Hessian element  7 1  is not symmetric:  -3.583065E-02   0.000000E+00
-60- hessian_numhess: Hessian element  6 54  is not symmetric:   0.000000E+00  -1.633375E-02
-59- hessian_numhess: Hessian element  6 52  is not symmetric:   0.000000E+00   1.062682E-02
-58- hessian_numhess: Hessian element  6 24  is not symmetric:   0.000000E+00  -4.641901E-02
-57- hessian_numhess: Hessian element  6 23  is not symmetric:   0.000000E+00  -1.377313E-02
-56- hessian_numhess: Hessian element  6 22  is not symmetric:   0.000000E+00  -1.048287E-02
-55- hessian_numhess: Hessian element  6 21  is not symmetric:   0.000000E+00  -3.926628E-02
-54- hessian_numhess: Hessian element  6 20  is not symmetric:   0.000000E+00   2.988740E-02
-53- hessian_numhess: Hessian element  6 18  is not symmetric:   0.000000E+00  -1.347296E-02
-52- hessian_numhess: Hessian element  6 17  is not symmetric:   0.000000E+00   1.598571E-02
-51- hessian_numhess: Hessian element  6 16  is not symmetric:   0.000000E+00  -1.151070E-02
-50- hessian_numhess: Hessian element  6 15  is not symmetric:   0.000000E+00  -3.001851E-02
-49- hessian_numhess: Hessian element  6 14  is not symmetric:   0.000000E+00  -1.638632E-02
-48- hessian_numhess: Hessian element  6 12  is not symmetric:   0.000000E+00  -2.267261E-02
-47- hessian_numhess: Hessian element  6 11  is not symmetric:   0.000000E+00  -1.012972E-02
-46- hessian_numhess: Hessian element  6 10  is not symmetric:   0.000000E+00  -1.008354E-02
-45- hessian_numhess: Hessian element  6 9  is not symmetric:   0.000000E+00  -5.333171E-02
-44- hessian_numhess: Hessian element  6 8  is not symmetric:   0.000000E+00  -7.511094E-02
-43- hessian_numhess: Hessian element  6 7  is not symmetric:   0.000000E+00  -1.833756E-02
-42- hessian_numhess: Hessian element  5 54  is not symmetric:   0.000000E+00  -1.999135E-02
-41- hessian_numhess: Hessian element  5 52  is not symmetric:   0.000000E+00   1.200287E-02
-40- hessian_numhess: Hessian element  5 44  is not symmetric:   0.000000E+00  -1.331354E-02
-39- hessian_numhess: Hessian element  5 26  is not symmetric:   0.000000E+00  -1.218663E-02
-38- hessian_numhess: Hessian element  5 23  is not symmetric:   0.000000E+00  -3.097967E-02
-37- hessian_numhess: Hessian element  5 21  is not symmetric:   0.000000E+00   2.197989E-02
-36- hessian_numhess: Hessian element  5 20  is not symmetric:   0.000000E+00  -3.057886E-02
-35- hessian_numhess: Hessian element  5 18  is not symmetric:   0.000000E+00   1.298211E-02
-34- hessian_numhess: Hessian element  5 17  is not symmetric:   0.000000E+00  -4.058582E-02
-33- hessian_numhess: Hessian element  5 16  is not symmetric:   0.000000E+00   1.074209E-02
-32- hessian_numhess: Hessian element  5 14  is not symmetric:   0.000000E+00  -3.288094E-02
-31- hessian_numhess: Hessian element  5 13  is not symmetric:   0.000000E+00  -1.380304E-02
-30- hessian_numhess: Hessian element  5 11  is not symmetric:   0.000000E+00  -4.427566E-02
-29- hessian_numhess: Hessian element  5 9  is not symmetric:   0.000000E+00  -3.341967E-02
-28- hessian_numhess: Hessian element  5 8  is not symmetric:   0.000000E+00  -2.397428E-02
-27- hessian_numhess: Hessian element  4 22  is not symmetric:   0.000000E+00  -2.118203E-02
-26- hessian_numhess: Hessian element  4 21  is not symmetric:   0.000000E+00  -1.170945E-02
-25- hessian_numhess: Hessian element  4 19  is not symmetric:   0.000000E+00  -1.533970E-02
-24- hessian_numhess: Hessian element  4 18  is not symmetric:   0.000000E+00  -1.295539E-02
-23- hessian_numhess: Hessian element  4 17  is not symmetric:   0.000000E+00   1.059869E-02
-22- hessian_numhess: Hessian element  4 16  is not symmetric:   0.000000E+00  -1.924127E-02
-21- hessian_numhess: Hessian element  4 15  is not symmetric:   0.000000E+00  -1.324871E-02
-20- hessian_numhess: Hessian element  4 14  is not symmetric:   0.000000E+00  -2.942073E-02
-19- hessian_numhess: Hessian element  4 13  is not symmetric:   0.000000E+00  -4.101694E-02
-18- hessian_numhess: Hessian element  4 11  is not symmetric:   0.000000E+00   2.307250E-02
-17- hessian_numhess: Hessian element  4 10  is not symmetric:   0.000000E+00  -2.195450E-02
-16- hessian_numhess: Hessian element  3 215  is not symmetric:   0.000000E+00  -3.019180E-02
-15- hessian_numhess: Hessian element  3 14  is not symmetric:   0.000000E+00   1.279267E-02
-14- hessian_numhess: Hessian element  3 11  is not symmetric:   0.000000E+00   1.114118E-02
-13- hessian_numhess: Hessian element  3 9  is not symmetric:   0.000000E+00  -3.210226E-02
-12- hessian_numhess: Hessian element  3 8  is not symmetric:   0.000000E+00   2.717915E-02
-11- hessian_numhess: Hessian element  2 215  is not symmetric:   0.000000E+00  -1.827650E-02
-10- hessian_numhess: Hessian element  2 13  is not symmetric:   0.000000E+00  -1.007609E-02
-9- hessian_numhess: Hessian element  2 12  is not symmetric:   0.000000E+00   1.157201E-02
-8- hessian_numhess: Hessian element  2 11  is not symmetric:   0.000000E+00  -1.443743E-02
-7- hessian_numhess: Hessian element  2 9  is not symmetric:   0.000000E+00  -1.169354E-02
-6- hessian_numhess: Hessian element  2 8  is not symmetric:   0.000000E+00  -1.111768E-01
-5- hessian_numhess: Hessian element  2 7  is not symmetric:   0.000000E+00  -1.697915E-02
-4- hessian_numhess: Hessian element  1 14  is not symmetric:   0.000000E+00  -1.885504E-02
-3- hessian_numhess: Hessian element  1 11  is not symmetric:   0.000000E+00   1.761736E-02
-2- hessian_numhess: Hessian element  1 8  is not symmetric:   0.000000E+00  -1.327995E-02
-1- hessian_numhess: Hessian element  1 7  is not symmetric:   0.000000E+00  -3.583065E-02
########################################################################

------------------------------------------------------------------------
 * finished run on 2021/06/17 at 12:30:16.355     
------------------------------------------------------------------------
 total:
 * wall-time:     0 d,  0 h,  0 min, 18.350 sec
 *  cpu-time:     0 d,  0 h,  2 min, 55.647 sec
 * ratio c/w:     9.572 speedup
 SCF:
 * wall-time:     0 d,  0 h,  0 min,  0.198 sec
 *  cpu-time:     0 d,  0 h,  0 min,  1.983 sec
 * ratio c/w:     9.992 speedup
 ANC optimizer:
 * wall-time:     0 d,  0 h,  0 min,  8.079 sec
 *  cpu-time:     0 d,  0 h,  1 min, 20.785 sec
 * ratio c/w:    10.000 speedup
 numerical hessian:
 * wall-time:     0 d,  0 h,  0 min, 10.019 sec
 *  cpu-time:     0 d,  0 h,  1 min, 32.384 sec
 * ratio c/w:     9.221 speedup

