 Entering Gaussian System, Link 0=g03
 Initial command:
 /global/apps/gaussian/03.e01/l1.exe /global/work/marcof/1923220.stallo-adm.uit.no/RuTo3/Gau-37996.inp -scrdir=/global/work/marcof/1923220.stallo-adm.uit.no/RuTo3/
 Entering Link 1 = /global/apps/gaussian/03.e01/l1.exe PID=     37997.
  
 Copyright (c) 1988,1990,1992,1993,1995,1998,2003,2004,2007, Gaussian, Inc.
                  All Rights Reserved.
  
 This is the Gaussian(R) 03 program.  It is based on the
 the Gaussian(R) 98 system (copyright 1998, Gaussian, Inc.),
 the Gaussian(R) 94 system (copyright 1995, Gaussian, Inc.),
 the Gaussian 92(TM) system (copyright 1992, Gaussian, Inc.),
 the Gaussian 90(TM) system (copyright 1990, Gaussian, Inc.),
 the Gaussian 88(TM) system (copyright 1988, Gaussian, Inc.),
 the Gaussian 86(TM) system (copyright 1986, Carnegie Mellon
 University), and the Gaussian 82(TM) system (copyright 1983,
 Carnegie Mellon University). Gaussian is a federally registered
 trademark of Gaussian, Inc.
  
 This software contains proprietary and confidential information,
 including trade secrets, belonging to Gaussian, Inc.
  
 This software is provided under written license and may be
 used, copied, transmitted, or stored only in accord with that
 written license.
  
 The following legend is applicable only to US Government
 contracts under FAR:
  
                    RESTRICTED RIGHTS LEGEND
  
 Use, reproduction and disclosure by the US Government is
 subject to restrictions as set forth in subparagraphs (a)
 and (c) of the Commercial Computer Software - Restricted
 Rights clause in FAR 52.227-19.
  
 Gaussian, Inc.
 340 Quinnipiac St., Bldg. 40, Wallingford CT 06492
  
  
 ---------------------------------------------------------------
 Warning -- This program may not be used in any manner that
 competes with the business of Gaussian, Inc. or will provide
 assistance to any competitor of Gaussian, Inc.  The licensee
 of this program is prohibited from giving any competitor of
 Gaussian, Inc. access to this program.  By using this program,
 the user acknowledges that Gaussian, Inc. is engaged in the
 business of creating and licensing software in the field of
 computational chemistry and represents and warrants to the
 licensee that it is not a competitor of Gaussian, Inc. and that
 it will not use this program in any manner prohibited above.
 ---------------------------------------------------------------
  

 Cite this work as:
 Gaussian 03, Revision E.01,
 M. J. Frisch, G. W. Trucks, H. B. Schlegel, G. E. Scuseria, 
 M. A. Robb, J. R. Cheeseman, J. A. Montgomery, Jr., T. Vreven, 
 K. N. Kudin, J. C. Burant, J. M. Millam, S. S. Iyengar, J. Tomasi, 
 V. Barone, B. Mennucci, M. Cossi, G. Scalmani, N. Rega, 
 G. A. Petersson, H. Nakatsuji, M. Hada, M. Ehara, K. Toyota, 
 R. Fukuda, J. Hasegawa, M. Ishida, T. Nakajima, Y. Honda, O. Kitao, 
 H. Nakai, M. Klene, X. Li, J. E. Knox, H. P. Hratchian, J. B. Cross, 
 V. Bakken, C. Adamo, J. Jaramillo, R. Gomperts, R. E. Stratmann, 
 O. Yazyev, A. J. Austin, R. Cammi, C. Pomelli, J. W. Ochterski, 
 P. Y. Ayala, K. Morokuma, G. A. Voth, P. Salvador, J. J. Dannenberg, 
 V. G. Zakrzewski, S. Dapprich, A. D. Daniels, M. C. Strain, 
 O. Farkas, D. K. Malick, A. D. Rabuck, K. Raghavachari, 
 J. B. Foresman, J. V. Ortiz, Q. Cui, A. G. Baboul, S. Clifford, 
 J. Cioslowski, B. B. Stefanov, G. Liu, A. Liashenko, P. Piskorz, 
 I. Komaromi, R. L. Martin, D. J. Fox, T. Keith, M. A. Al-Laham, 
 C. Y. Peng, A. Nanayakkara, M. Challacombe, P. M. W. Gill, 
 B. Johnson, W. Chen, M. W. Wong, C. Gonzalez, and J. A. Pople, 
 Gaussian, Inc., Wallingford CT, 2004.
 
 ******************************************
 Gaussian 03:  EM64L-G03RevE.01 11-Sep-2007
                23-Dec-2013 
 ******************************************
 %NPROCSHARED=8
 Will use up to    8 processors via shared memory.
 %LINDAWORKERS=c11-7
 SetLPE:  input flags="-v -nodelist "c11-7 " "
 SetLPE:    new flags="-v -nodelist "c11-7 "  -nodelist 'c11-7.local'"
 Will use up to    1 processors via Linda.
 %CHK=RuTo3
 %MEM=28GB
 ----------------------------------------------------------------------
 #P # HF/LANL2MB 5D 7F # SCF=(VSHIFT=1000,NOSYM,NOVARACC,MAXCYCLE=180) 
 # SP
 ----------------------------------------------------------------------
 1/38=1/1;
 2/17=6,18=5,40=1/2;
 3/5=6,6=2,8=11,11=9,16=1,25=1,30=1/1,2,3;
 4/9=2/1;
 5/5=2,7=180,10=1000,32=1,38=1/2;
 6/7=2,8=2,9=2,10=2,28=1/1;
 99/5=1,9=1/99;
 Leave Link    1 at Mon Dec 23 00:21:36 2013, MaxMem= 3758096384 cpu:       1.2
 (Enter /global/apps/gaussian/03.e01/l101.exe)
 -----------------------------------------
 STEP 1 - PROTOCOL 3D-BUILDER, 22 DEC 2013
 -----------------------------------------
 Symbolic Z-matrix:
 Charge =  0 Multiplicity = 1
 C                    -3.4976   -2.0553    1.1099 
 C                    -4.2552   -0.9298    1.7274 
 C                    -4.9118   -1.2324    2.9481 
 C                    -5.6998   -0.2821    3.6095 
 C                    -5.8679    0.9874    3.0462 
 C                    -5.2338    1.3093    1.8347 
 C                    -4.3794    0.3883    1.1682 
 P                    -3.5286    0.9121   -0.1759 
 Ru                   -4.2645   -0.7127   -1.8725 
 C                    -6.3463   -0.9311   -1.324 
 Cl                   -4.333    -0.1958   -4.3194 
 Cl                   -3.0117   -2.8306   -2.2893 
 C                    -3.9898    2.4121   -0.7518 
 C                    -4.9247    2.4684   -1.8158 
 C                    -5.3786    3.6892   -2.34 
 C                    -4.9112    4.8947   -1.8072 
 C                    -4.        4.8718   -0.743 
 C                    -3.5292    3.6521   -0.1967 
 C                    -2.5824    3.7566    0.949 
 C                    -1.8691    0.7726   -0.0396 
 C                    -1.3282    0.7026    1.2731 
 C                     0.0532    0.6631    1.5043 
 C                     0.9405    0.6937    0.424 
 C                     0.4389    0.7581   -0.8844 
 C                    -0.9573    0.7974   -1.1425 
 C                    -1.3884    0.8488   -2.566 
 H                    -3.0752   -2.6828    1.8947 
 H                    -4.1701   -2.65      0.4917 
 H                    -2.6935   -1.6561    0.4917 
 H                    -4.8079   -2.2232    3.3904 
 H                    -6.1793   -0.529     4.5567 
 H                    -6.4922    1.7249    3.5507 
 H                    -5.4085    2.2947    1.4026 
 H                    -6.9691   -0.0473   -1.1859 
 H                    -6.7721   -1.9249   -1.1859 
 H                    -5.3072    1.5424   -2.2451 
 H                    -6.0948    3.7011   -3.1616 
 H                    -5.2543    5.8443   -2.218 
 H                    -3.6512    5.8196   -0.3329 
 H                    -2.3056    2.757     1.2839 
 H                    -1.6884    4.2946    0.6337 
 H                    -3.0605    4.2946    1.7675 
 H                    -1.9969    0.6783    2.1335 
 H                     0.437     0.6086    2.523 
 H                     2.0158    0.6675    0.6006 
 H                     1.1456    0.7779   -1.7141 
 H                    -1.5039   -0.1657   -2.9475 
 H                    -2.3403    1.3749   -2.6386 
 H                    -0.6367    1.3749   -3.1545 
 
                    Isotopes and Nuclear Properties:
 (Nuclear quadrupole moments (NQMom) in fm**2, nuclear magnetic moments (NMagM)
  in nuclear magnetons)

  Atom         1           2           3           4           5           6           7           8           9          10
 IAtWgt=          12          12          12          12          12          12          12          31         102          12
 AtmWgt=  12.0000000  12.0000000  12.0000000  12.0000000  12.0000000  12.0000000  12.0000000  30.9737634 101.9037000  12.0000000
 NucSpn=           0           0           0           0           0           0           0           1           0           0
 AtZEff=   0.0000000   0.0000000   0.0000000   0.0000000   0.0000000   0.0000000   0.0000000   0.0000000   0.0000000   0.0000000
 NQMom=    0.0000000   0.0000000   0.0000000   0.0000000   0.0000000   0.0000000   0.0000000   0.0000000   0.0000000   0.0000000
 NMagM=    0.0000000   0.0000000   0.0000000   0.0000000   0.0000000   0.0000000   0.0000000   1.1316000   0.0000000   0.0000000

  Atom        11          12          13          14          15          16          17          18          19          20
 IAtWgt=          35          35          12          12          12          12          12          12          12          12
 AtmWgt=  34.9688527  34.9688527  12.0000000  12.0000000  12.0000000  12.0000000  12.0000000  12.0000000  12.0000000  12.0000000
 NucSpn=           3           3           0           0           0           0           0           0           0           0
 AtZEff=   0.0000000   0.0000000   0.0000000   0.0000000   0.0000000   0.0000000   0.0000000   0.0000000   0.0000000   0.0000000
 NQMom=   -8.1650000  -8.1650000   0.0000000   0.0000000   0.0000000   0.0000000   0.0000000   0.0000000   0.0000000   0.0000000
 NMagM=    0.8218740   0.8218740   0.0000000   0.0000000   0.0000000   0.0000000   0.0000000   0.0000000   0.0000000   0.0000000

  Atom        21          22          23          24          25          26          27          28          29          30
 IAtWgt=          12          12          12          12          12          12           1           1           1           1
 AtmWgt=  12.0000000  12.0000000  12.0000000  12.0000000  12.0000000  12.0000000   1.0078250   1.0078250   1.0078250   1.0078250
 NucSpn=           0           0           0           0           0           0           1           1           1           1
 AtZEff=   0.0000000   0.0000000   0.0000000   0.0000000   0.0000000   0.0000000   0.0000000   0.0000000   0.0000000   0.0000000
 NQMom=    0.0000000   0.0000000   0.0000000   0.0000000   0.0000000   0.0000000   0.0000000   0.0000000   0.0000000   0.0000000
 NMagM=    0.0000000   0.0000000   0.0000000   0.0000000   0.0000000   0.0000000   2.7928460   2.7928460   2.7928460   2.7928460

  Atom        31          32          33          34          35          36          37          38          39          40
 IAtWgt=           1           1           1           1           1           1           1           1           1           1
 AtmWgt=   1.0078250   1.0078250   1.0078250   1.0078250   1.0078250   1.0078250   1.0078250   1.0078250   1.0078250   1.0078250
 NucSpn=           1           1           1           1           1           1           1           1           1           1
 AtZEff=   0.0000000   0.0000000   0.0000000   0.0000000   0.0000000   0.0000000   0.0000000   0.0000000   0.0000000   0.0000000
 NQMom=    0.0000000   0.0000000   0.0000000   0.0000000   0.0000000   0.0000000   0.0000000   0.0000000   0.0000000   0.0000000
 NMagM=    2.7928460   2.7928460   2.7928460   2.7928460   2.7928460   2.7928460   2.7928460   2.7928460   2.7928460   2.7928460

  Atom        41          42          43          44          45          46          47          48          49
 IAtWgt=           1           1           1           1           1           1           1           1           1
 AtmWgt=   1.0078250   1.0078250   1.0078250   1.0078250   1.0078250   1.0078250   1.0078250   1.0078250   1.0078250
 NucSpn=           1           1           1           1           1           1           1           1           1
 AtZEff=   0.0000000   0.0000000   0.0000000   0.0000000   0.0000000   0.0000000   0.0000000   0.0000000   0.0000000
 NQMom=    0.0000000   0.0000000   0.0000000   0.0000000   0.0000000   0.0000000   0.0000000   0.0000000   0.0000000
 NMagM=    2.7928460   2.7928460   2.7928460   2.7928460   2.7928460   2.7928460   2.7928460   2.7928460   2.7928460
 Leave Link  101 at Mon Dec 23 00:21:51 2013, MaxMem= 3758096384 cpu:       0.4
 (Enter /global/apps/gaussian/03.e01/l202.exe)
                          Input orientation:                          
 ---------------------------------------------------------------------
 Center     Atomic     Atomic              Coordinates (Angstroms)
 Number     Number      Type              X           Y           Z
 ---------------------------------------------------------------------
    1          6             0       -3.497600   -2.055300    1.109900
    2          6             0       -4.255200   -0.929800    1.727400
    3          6             0       -4.911800   -1.232400    2.948100
    4          6             0       -5.699800   -0.282100    3.609500
    5          6             0       -5.867900    0.987400    3.046200
    6          6             0       -5.233800    1.309300    1.834700
    7          6             0       -4.379400    0.388300    1.168200
    8         15             0       -3.528600    0.912100   -0.175900
    9         44             0       -4.264500   -0.712700   -1.872500
   10          6             0       -6.346300   -0.931100   -1.324000
   11         17             0       -4.333000   -0.195800   -4.319400
   12         17             0       -3.011700   -2.830600   -2.289300
   13          6             0       -3.989800    2.412100   -0.751800
   14          6             0       -4.924700    2.468400   -1.815800
   15          6             0       -5.378600    3.689200   -2.340000
   16          6             0       -4.911200    4.894700   -1.807200
   17          6             0       -4.000000    4.871800   -0.743000
   18          6             0       -3.529200    3.652100   -0.196700
   19          6             0       -2.582400    3.756600    0.949000
   20          6             0       -1.869100    0.772600   -0.039600
   21          6             0       -1.328200    0.702600    1.273100
   22          6             0        0.053200    0.663100    1.504300
   23          6             0        0.940500    0.693700    0.424000
   24          6             0        0.438900    0.758100   -0.884400
   25          6             0       -0.957300    0.797400   -1.142500
   26          6             0       -1.388400    0.848800   -2.566000
   27          1             0       -3.075200   -2.682800    1.894700
   28          1             0       -4.170100   -2.650000    0.491700
   29          1             0       -2.693500   -1.656100    0.491700
   30          1             0       -4.807900   -2.223200    3.390400
   31          1             0       -6.179300   -0.529000    4.556700
   32          1             0       -6.492200    1.724900    3.550700
   33          1             0       -5.408500    2.294700    1.402600
   34          1             0       -6.969100   -0.047300   -1.185900
   35          1             0       -6.772100   -1.924900   -1.185900
   36          1             0       -5.307200    1.542400   -2.245100
   37          1             0       -6.094800    3.701100   -3.161600
   38          1             0       -5.254300    5.844300   -2.218000
   39          1             0       -3.651200    5.819600   -0.332900
   40          1             0       -2.305600    2.757000    1.283900
   41          1             0       -1.688400    4.294600    0.633700
   42          1             0       -3.060500    4.294600    1.767500
   43          1             0       -1.996900    0.678300    2.133500
   44          1             0        0.437000    0.608600    2.523000
   45          1             0        2.015800    0.667500    0.600600
   46          1             0        1.145600    0.777900   -1.714100
   47          1             0       -1.503900   -0.165700   -2.947500
   48          1             0       -2.340300    1.374900   -2.638600
   49          1             0       -0.636700    1.374900   -3.154500
 ---------------------------------------------------------------------
                    Distance matrix (angstroms):
                    1          2          3          4          5
     1  C    0.000000
     2  C    1.490642   0.000000
     3  C    2.460916   1.418731   0.000000
     4  C    3.773847   2.459407   1.400523   0.000000
     5  C    4.315739   2.831199   2.418938   1.398998   0.000000
     6  C    3.854901   2.445964   2.793489   2.428914   1.404790
     7  C    2.598490   1.437191   2.465393   2.855317   2.470109
     8  P    3.234147   2.746469   4.033795   4.524321   3.982452
     9  Ru   3.359378   3.606452   4.891551   5.683118   5.445626
    10  C    3.911878   3.699154   4.516571   5.017827   4.796682
    11  Cl   5.799391   6.091683   7.363838   8.046306   7.616295
    12  Cl   3.520192   4.614457   5.796118   6.965384   7.155597
    13  C    4.864756   4.169552   5.274630   5.404050   4.470104
    14  C    5.573168   4.954822   6.032481   6.131877   5.169336
    15  C    6.959831   6.256271   7.239064   7.160373   6.045683
    16  C    7.668783   6.844599   7.755916   7.534042   6.303789
    17  C    7.188210   6.310829   7.191443   6.956742   5.738959
    18  C    5.855136   5.022255   5.971573   5.888683   4.804846
    19  C    5.885717   5.036518   5.857698   5.753915   4.781342
    20  C    3.459824   3.422562   4.712154   5.394681   5.055562
    21  C    3.512683   3.382077   4.403639   5.053641   4.881995
    22  C    4.489257   4.598849   5.507150   6.198571   6.127157
    23  C    5.265377   5.597312   6.658105   7.429211   7.301815
    24  C    5.233401   5.630726   6.876055   7.678593   7.434912
    25  C    4.434448   4.700605   6.040792   6.799863   6.457190
    26  C    5.137583   5.460334   6.866661   7.616029   7.182055
    27  H    1.089995   2.119764   2.566400   3.948724   4.753472
    28  H    1.089998   2.119737   2.931486   4.203286   4.758012
    29  H    1.090004   2.119758   3.336806   4.543830   4.856993
    30  H    2.635480   2.178056   1.090004   2.147408   3.398533
    31  H    4.626180   3.444959   2.165392   1.089985   2.162880
    32  H    5.405094   3.921227   3.406819   2.158565   1.090035
    33  H    4.760222   3.439912   3.882746   3.405167   2.149768
    34  H    4.621047   4.078158   4.767274   4.966097   4.493764
    35  H    4.001256   3.976472   4.585873   5.181166   5.216296
    36  H    5.241576   4.795752   5.901287   6.144858   5.349791
    37  H    7.624126   6.980808   7.941495   7.865730   6.778822
    38  H    8.750120   7.902709   8.768442   8.467054   7.188726
    39  H    8.007454   7.082659   7.879389   7.547849   6.299384
    40  H    4.960783   4.194058   5.047490   5.115187   4.350536
    41  H    6.619758   5.922753   6.804005   6.774430   5.850295
    42  H    6.398806   5.359410   5.947172   5.595092   4.522625
    43  H    3.282137   2.801932   3.579244   4.100294   3.989136
    44  H    4.957246   5.001639   5.672711   6.295565   6.337901
    45  H    6.170138   6.568599   7.557249   8.335808   8.260510
    46  H    6.128728   6.627881   7.903766   8.736350   8.479005
    47  H    4.899788   5.477973   6.892730   7.785459   7.503238
    48  H    5.211225   5.295322   6.679958   7.284960   6.701572
    49  H    6.175446   6.499087   7.894062   8.610013   8.121840
                    6          7          8          9         10
     6  C    0.000000
     7  C    1.422133   0.000000
     8  P    2.666081   1.674763   0.000000
     9  Ru   4.332593   3.235933   2.461702   0.000000
    10  C    4.029198   3.438106   3.557380   2.163895   0.000000
    11  Cl   6.399196   5.518793   4.363839   2.501839   3.683268
    12  Cl   6.251710   4.917949   4.329139   2.495742   3.957204
    13  C    3.074685   2.816728   1.671636   3.331036   4.130072
    14  C    3.842552   3.678101   2.657148   3.249381   3.717447
    15  C    4.807599   4.919533   3.977199   4.564701   4.828651
    16  C    5.120801   5.426183   4.520379   5.644946   6.019380
    17  C    4.567078   4.888599   4.027784   5.703716   6.286202
    18  C    3.538497   3.638431   2.740079   4.732911   5.496597
    19  C    3.715328   3.823964   3.201855   5.546617   6.427130
    20  C    3.888734   2.812130   1.670921   3.362080   4.959596
    21  C    3.992141   3.069138   2.642963   4.529871   5.881771
    22  C    5.336582   4.453810   3.964135   5.651384   7.175957
    23  C    6.363255   5.380375   4.514469   5.860367   7.667655
    24  C    6.314812   5.250327   4.033205   5.026089   7.006110
    25  C    5.235858   4.149393   2.749374   3.708217   5.662330
    26  C    5.862194   4.806495   3.208900   3.345321   5.412151
    27  H    4.538724   3.414732   4.173280   4.414468   4.912085
    28  H    4.314066   3.119732   3.680458   3.058020   3.314699
    29  H    4.129209   2.734864   2.781858   2.991235   4.143107
    30  H    3.883317   3.455679   4.917846   5.502273   5.124623
    31  H    3.417982   3.944998   5.612529   6.710799   5.896796
    32  H    2.168167   3.453510   4.830229   6.349460   5.553226
    33  H    1.090066   2.179071   2.817316   4.591238   4.326616
    34  H    3.738403   3.526766   3.711817   2.868630   1.089979
    35  H    4.685130   4.076481   4.425942   2.868607   1.089961
    36  H    4.087113   3.720669   2.800408   2.512276   2.836610
    37  H    5.605804   5.715279   4.824760   4.949081   4.989720
    38  H    6.082025   6.480720   5.610242   6.640280   6.920820
    39  H    5.248421   5.681778   4.911541   6.739247   7.336061
    40  H    3.312638   3.150361   2.651490   5.083205   6.060568
    41  H    4.787930   4.773505   3.934856   6.163634   7.268876
    42  H    3.693205   4.166274   3.929024   6.306526   6.903752
    43  H    3.311339   2.586931   2.781024   4.808838   5.784614
    44  H    5.755233   5.008166   4.806470   6.570415   7.948789
    45  H    7.381843   6.426407   5.603852   6.889365   8.728363
    46  H    7.319366   6.243802   4.922623   5.613926   7.694246
    47  H    6.241572   5.051178   3.597614   3.012598   5.164342
    48  H    5.327951   4.429789   2.773289   2.940668   4.805606
    49  H    6.784523   5.802320   4.177239   4.377503   6.424010
                   11         12         13         14         15
    11  Cl   0.000000
    12  Cl   3.579010   0.000000
    13  C    4.432460   5.550359   0.000000
    14  C    3.703523   5.653598   1.417499   0.000000
    15  C    4.483807   6.936323   2.466197   1.403981   0.000000
    16  C    5.706019   7.969993   2.850640   2.426353   1.398417
    17  C    6.211449   7.918001   2.459737   2.789678   2.418572
    18  C    5.696410   6.831704   1.434534   2.443369   2.831147
    19  C    6.814844   7.352693   2.584797   3.845770   4.317499
    20  C    5.032424   4.398833   2.773546   3.920117   5.110282
    21  C    6.411864   5.292293   3.755892   5.059068   6.195160
    22  C    7.341113   5.999246   4.949226   6.249933   7.310292
    23  C    7.148486   5.950006   5.351940   6.524326   7.519557
    24  C    5.956524   5.172925   4.729343   5.706210   6.674835
    25  C    4.740727   4.324129   3.457739   4.357274   5.417048
    26  C    3.582774   4.031085   3.535889   3.961227   4.903126
    27  H    6.810453   4.187091   5.813644   6.612361   7.990039
    28  H    5.403362   3.018024   5.215712   5.664980   7.047301
    29  H    5.288395   3.035566   4.447127   5.226309   6.618196
    30  H    7.986044   5.987843   6.270017   7.009228   8.253463
    31  H    9.072210   7.886620   6.451678   7.153124   8.123965
    32  H    8.383896   8.183646   5.024515   5.639962   6.308639
    33  H    6.332501   6.755996   2.582234   3.259192   3.994068
    34  H    4.097548   4.962385   3.887585   3.302286   4.221738
    35  H    4.331030   4.022237   5.170997   4.807364   5.898467
    36  H    2.876304   4.939069   2.172985   1.089991   2.150082
    37  H    4.430606   7.275268   3.449592   2.167916   1.090005
    38  H    6.461229   8.960370   3.940647   3.415714   2.162126
    39  H    7.248591   8.891705   3.449809   3.879605   3.398671
    40  H    6.650289   6.669903   2.664500   4.068306   4.842001
    41  H    7.189631   7.814316   3.280222   4.450696   4.777759
    42  H    7.670287   8.199298   3.279371   4.432864   4.755171
    43  H    6.918189   5.736145   3.911863   5.231963   6.365031
    44  H    8.379642   6.846887   5.794263   7.143659   8.182913
    45  H    8.078301   6.772295   6.398425   7.566556   8.512047
    46  H    6.144163   5.534914   5.474392   6.302117   7.171653
    47  H    3.144332   3.131833   4.200696   4.463306   5.499328
    48  H    3.043524   4.273057   2.712314   2.924357   3.830981
    49  H    4.181713   4.906672   4.253473   4.623289   5.339008
                   16         17         18         19         20
    16  C    0.000000
    17  C    1.401189   0.000000
    18  C    2.459205   1.416956   0.000000
    19  C    3.783546   2.473080   1.489959   0.000000
    20  C    5.419455   4.673216   3.327481   3.223412   0.000000
    21  C    6.316632   5.346532   3.962860   3.317375   1.421497
    22  C    7.315582   6.260347   4.965996   4.101766   2.467966
    23  C    7.541157   6.574720   5.395889   4.697638   2.848684
    24  C    6.825437   6.053623   4.959232   4.634718   2.457796
    25  C    5.732628   5.100819   3.957085   3.971421   1.431217
    26  C    5.418044   5.131112   4.249129   4.715523   2.572854
    27  H    8.630960   8.055104   6.686631   6.527103   4.139563
    28  H    7.921911   7.624362   6.371900   6.616225   4.158253
    29  H    7.288080   6.770887   5.417497   5.433120   2.619255
    30  H    8.814205   8.250862   7.001536   6.831639   5.419987
    31  H    8.457176   7.874313   6.862903   6.657293   6.434125
    32  H    6.422950   5.877916   5.151357   5.116951   5.930445
    33  H    4.160544   3.637158   2.816392   3.213992   4.113889
    34  H    5.389279   5.762748   5.147523   6.186323   5.291147
    35  H    7.096190   7.353627   6.526703   7.375014   5.712260
    36  H    3.403893   3.879430   3.436286   4.746524   4.156604
    37  H    2.158701   3.407103   3.921140   5.407131   6.014943
    38  H    1.090052   2.166714   3.444904   4.639766   6.475117
    39  H    2.148628   1.090031   2.175199   2.653596   5.360421
    40  H    4.573162   3.384035   2.119098   1.089943   2.424877
    41  H    4.087120   2.751719   2.119178   1.089997   3.590330
    42  H    4.069851   2.741976   2.119096   1.089938   4.133948
    43  H    6.465314   5.465538   4.076918   3.349893   2.178896
    44  H    8.107067   6.966247   5.691257   4.637257   3.451364
    45  H    8.464635   7.461317   6.347484   5.550438   3.938699
    46  H    7.324038   6.646823   5.693618   5.464681   3.448535
    47  H    6.206257   6.038770   5.122923   5.632967   3.077281
    48  H    4.437313   4.310013   3.544291   4.313001   2.709169
    49  H    5.698733   5.418065   4.722370   5.128056   3.403554
                   21         22         23         24         25
    21  C    0.000000
    22  C    1.401171   0.000000
    23  C    2.422406   1.398315   0.000000
    24  C    2.789360   2.421503   1.402733   0.000000
    25  C    2.445747   2.836318   2.462990   1.420399   0.000000
    26  C    3.842354   4.322041   3.793143   2.484961   1.488234
    27  H    3.859965   4.597211   5.448812   5.649079   5.081523
    28  H    4.463957   5.462440   6.107630   5.895055   4.987711
    29  H    2.835154   3.734757   4.328060   4.187355   3.421208
    30  H    5.015135   5.959731   7.095910   7.395335   6.670707
    31  H    5.985987   7.041470   8.322605   8.663877   7.842799
    32  H    5.735805   6.939556   8.129247   8.285225   7.315839
    33  H    4.381826   5.701108   6.620473   6.464023   5.341594
    34  H    6.199095   7.553446   8.105716   7.457750   6.071008
    35  H    6.525832   7.779437   8.302593   7.699864   6.420646
    36  H    5.377308   6.600383   6.846761   5.956870   4.548888
    37  H    7.167848   8.294454   8.449641   7.519051   6.237158
    38  H    7.351130   8.298789   8.478466   7.749867   6.715066
    39  H    5.844592   6.609643   6.923255   6.530839   5.756305
    40  H    2.275080   3.161792   3.941294   4.028574   3.397847
    41  H    3.666202   4.120547   4.463359   4.397370   3.989963
    42  H    4.018427   4.790845   5.547925   5.637837   5.012181
    43  H    1.089972   2.144536   3.398668   3.879073   3.439059
    44  H    2.164952   1.089964   2.160221   3.410679   3.926272
    45  H    3.411132   2.160669   1.090020   2.167959   3.448854
    46  H    3.879268   3.400679   2.149564   1.090055   2.179288
    47  H    4.312572   4.788527   4.252137   2.980648   2.117630
    48  H    4.096063   4.837264   4.539515   3.343892   2.117666
    49  H    4.531424   4.763091   3.969541   2.586641   2.117648
                   26         27         28         29         30
    26  C    0.000000
    27  H    5.934251   0.000000
    28  H    5.415624   1.779969   0.000000
    29  H    4.162612   1.779949   1.779940   0.000000
    30  H    7.523886   2.334652   2.998568   3.632458   0.000000
    31  H    8.693901   4.621746   5.005971   5.472237   2.472106
    32  H    8.014384   5.817735   5.821459   5.934540   4.295353
    33  H    5.831091   5.519235   5.178169   4.879527   4.972272
    34  H    5.818237   5.621247   4.174062   4.866553   5.508888
    35  H    6.211466   4.871507   3.179704   4.418322   4.988946
    36  H    3.992625   6.322348   5.134130   4.954988   6.796168
    37  H    5.535391   8.685524   7.575457   7.322229   8.926486
    38  H    6.326240   9.714639   8.981709   8.375928   9.835547
    39  H    5.900496   8.808222   8.525453   7.581771   8.937984
    40  H    4.393656   5.527819   5.774045   4.500389   5.958292
    41  H    4.711859   7.224780   7.376074   6.036656   7.733847
    42  H    5.783483   6.978575   7.147471   6.096982   6.940384
    43  H    4.741797   3.537902   4.300684   2.937717   4.230865
    44  H    5.411811   4.854238   5.997501   4.365212   6.023325
    45  H    4.652827   6.230368   7.020187   5.252474   7.918460
    46  H    2.674307   6.543320   6.698710   5.052583   8.396826
    47  H    1.089997   5.679056   5.010835   3.932498   7.437654
    48  H    1.090030   6.128280   5.417266   4.371555   7.442057
    49  H    1.090030   6.921389   6.479160   5.168381   8.554586
                   31         32         33         34         35
    31  H    0.000000
    32  H    2.487973   0.000000
    33  H    4.302994   2.472531   0.000000
    34  H    5.816638   5.079715   3.823711   0.000000
    35  H    5.939478   5.986214   5.134663   1.887906   0.000000
    36  H    7.163501   5.918516   3.725847   2.531988   3.910244
    37  H    8.801877   7.008442   4.825027   4.326464   6.001167
    38  H    9.347253   7.195815   5.072690   6.222276   7.983071
    39  H    8.402631   6.318243   4.304066   6.793864   8.393146
    40  H    6.042728   4.871471   3.139395   5.975972   6.926018
    41  H    7.669761   6.179704   4.293012   7.074520   8.236330
    42  H    6.385426   4.643245   3.105778   6.546130   7.821811
    43  H    4.982162   4.828204   3.845254   6.022266   6.371625
    44  H    7.014663   7.093385   6.186122   8.308818   8.493862
    45  H    9.178344   9.066821   7.642723   9.188632   9.334844
    46  H    9.730626   9.324748   7.414225   8.173635   8.382965
    47  H    8.848976   8.407384   6.342148   5.743315   5.826830
    48  H    8.374670   7.461113   5.156664   5.055569   5.713131
    49  H    9.685446   8.908933   6.662077   6.782133   7.239282
                   36         37         38         39         40
    36  H    0.000000
    37  H    2.473918   0.000000
    38  H    4.302311   2.487997   0.000000
    39  H    4.969234   4.296599   2.474700   0.000000
    40  H    4.789436   5.917080   5.521735   3.715400   0.000000
    41  H    5.381246   5.845760   4.821764   2.666932   1.779862
    42  H    5.359405   5.818526   4.806094   2.661998   1.779875
    43  H    5.556698   7.346304   7.498917   5.937407   2.266740
    44  H    7.523470   9.194707   9.070862   7.212771   3.697681
    45  H    7.905048   9.441330   9.359387   7.715598   4.848444
    46  H    6.519590   7.941269   8.178083   7.094769   4.981528
    47  H    4.228009   6.006192   7.121641   6.875380   5.204771
    48  H    2.997565   4.447584   5.351994   5.175912   4.159016
    49  H    4.761159   5.933137   6.494213   6.066630   4.939111
                   41         42         43         44         45
    41  H    0.000000
    42  H    1.779933   0.000000
    43  H    3.927111   3.787192   0.000000
    44  H    4.655467   5.137108   2.465854   0.000000
    45  H    5.184404   6.347151   4.295540   2.488313   0.000000
    46  H    5.090275   6.494613   4.968828   4.299278   2.475333
    47  H    5.723051   6.674467   5.174161   5.856023   5.066707
    48  H    4.433686   5.334515   4.834885   5.911237   5.474344
    49  H    4.897058   6.214945   5.504393   5.828727   4.651553
                   46         47         48         49
    46  H    0.000000
    47  H    3.071076   0.000000
    48  H    3.655490   1.780009   0.000000
    49  H    2.368070   1.779981   1.780002   0.000000
 Stoichiometry    C22H23Cl2PRu
 Framework group  C1[X(C22H23Cl2PRu)]
 Deg. of freedom   141
 Full point group                 C1
 Largest Abelian subgroup         C1      NOp   1
 Largest concise Abelian subgroup C1      NOp   1
                         Standard orientation:                         
 ---------------------------------------------------------------------
 Center     Atomic     Atomic              Coordinates (Angstroms)
 Number     Number      Type              X           Y           Z
 ---------------------------------------------------------------------
    1          6             0        0.292716   -3.088366   -0.022003
    2          6             0       -0.859174   -2.589970   -0.826219
    3          6             0       -1.568234   -3.578802   -1.555770
    4          6             0       -2.640384   -3.242228   -2.391638
    5          6             0       -3.009028   -1.900253   -2.534467
    6          6             0       -2.318144   -0.901668   -1.828108
    7          6             0       -1.264342   -1.214681   -0.925896
    8         15             0       -0.612124    0.016521    0.003397
    9         44             0        1.767324   -0.127931   -0.610881
   10          6             0        1.597255   -0.575319   -2.721180
   11         17             0        3.320200    1.831959   -0.529620
   12         17             0        3.371900   -1.534924    0.683120
   13          6             0       -1.102473    1.553868   -0.433055
   14          6             0       -0.271112    2.307002   -1.299617
   15          6             0       -0.623357    3.596224   -1.729727
   16          6             0       -1.827026    4.168794   -1.306745
   17          6             0       -2.678586    3.442044   -0.464123
   18          6             0       -2.344922    2.139011   -0.018547
   19          6             0       -3.342294    1.457180    0.853424
   20          6             0       -0.716851   -0.233823    1.652135
   21          6             0       -1.709307   -1.142712    2.109963
   22          6             0       -1.935807   -1.367169    3.474366
   23          6             0       -1.173350   -0.685007    4.427571
   24          6             0       -0.182732    0.215502    4.008740
   25          6             0        0.065349    0.457452    2.631260
   26          6             0        1.148871    1.418938    2.290134
   27          1             0        0.067850   -4.085918    0.355375
   28          1             0        1.183136   -3.129386   -0.649350
   29          1             0        0.469509   -2.414196    0.816059
   30          1             0       -1.281100   -4.626942   -1.471706
   31          1             0       -3.184466   -4.019837   -2.927705
   32          1             0       -3.833655   -1.633011   -3.195337
   33          1             0       -2.605863    0.138206   -1.983427
   34          1             0        0.960551    0.038037   -3.358719
   35          1             0        2.148352   -1.413969   -3.146592
   36          1             0        0.670125    1.880746   -1.646691
   37          1             0        0.038449    4.153281   -2.392908
   38          1             0       -2.099212    5.173223   -1.631167
   39          1             0       -3.617182    3.898458   -0.149654
   40          1             0       -2.976348    0.464881    1.116868
   41          1             0       -3.491531    2.042088    1.761006
   42          1             0       -4.288577    1.365763    0.320360
   43          1             0       -2.318647   -1.687246    1.388696
   44          1             0       -2.703943   -2.071420    3.793773
   45          1             0       -1.349977   -0.854079    5.489815
   46          1             0        0.403864    0.735720    4.766037
   47          1             0        2.095551    0.885065    2.207248
   48          1             0        0.919944    1.902365    1.340368
   49          1             0        1.224675    2.173634    3.072984
 ---------------------------------------------------------------------
 Rotational constants (GHZ):      0.1633156      0.1456891      0.1364661
 Leave Link  202 at Mon Dec 23 00:22:05 2013, MaxMem= 3758096384 cpu:       0.5
 (Enter /global/apps/gaussian/03.e01/l301.exe)
 Standard basis: LANL2MB (5D, 7F)
 There are   158 symmetry adapted basis functions of A   symmetry.
 Integral buffers will be    131072 words long.
 Raffenetti 1 integral format.
 Two-electron integral symmetry is turned on.
   158 basis functions,   485 primitive gaussians,   159 cartesian basis functions
    95 alpha electrons       95 beta electrons
       nuclear repulsion energy      2383.5078981712 Hartrees.



 Warning!  P  atom    8 may be hypervalent but has no d functions.



 IExCor=   0 DFT=F Ex=HF Corr=None ExCW=0 ScaHFX=  1.000000
 ScaDFX=  1.000000  1.000000  1.000000  1.000000
 IRadAn=      0 IRanWt=     -1 IRanGd=            0 ICorTp=0
 NAtoms=   49 NActive=   49 NUniq=   49 SFac= 7.50D-01 NAtFMM=   80 NAOKFM=F Big=F
 Leave Link  301 at Mon Dec 23 00:22:19 2013, MaxMem= 3758096384 cpu:       0.2
 (Enter /global/apps/gaussian/03.e01/l302.exe)
 NPDir=0 NMtPBC=     1 NCelOv=     1 NCel=       1 NClECP=     1 NCelD=      1
         NCelK=      1 NCelE2=     1 NClLst=     1 CellRange=     0.0.
 One-electron integrals computed using PRISM.
   1 Symmetry operations used in ECPInt.
 ECPInt:  NShTT=    3081 NPrTT=   28447 LenC2=    2897 LenP2D=   18345.
 LDataN:  DoStor=F MaxTD1= 5 Len=  102
 LDataN:  DoStor=T MaxTD1= 5 Len=  102
 NBasis=   158 RedAO= T  NBF=   158
 NBsUse=   158 1.00D-06 NBFU=   158
 Leave Link  302 at Mon Dec 23 00:22:34 2013, MaxMem= 3758096384 cpu:       4.4
 (Enter /global/apps/gaussian/03.e01/l303.exe)
 DipDrv:  MaxL=1.
 Leave Link  303 at Mon Dec 23 00:22:48 2013, MaxMem= 3758096384 cpu:       0.6
 (Enter /global/apps/gaussian/03.e01/l401.exe)
 SCF N**3 symmetry information disabled.
 Harris functional with IExCor=  205 diagonalized for initial guess.
 ExpMin= 2.50D-02 ExpMax= 7.16D+01 ExpMxC= 7.16D+01 IAcc=3 IRadAn=         5 AccDes= 0.00D+00
 HarFok:  IExCor= 205 AccDes= 0.00D+00 IRadAn=         5 IDoV=1
 ScaDFX=  1.000000  1.000000  1.000000  1.000000
 Defaulting to unpruned grid for atomic number  44.
 Defaulting to unpruned grid for atomic number  44.
 Defaulting to unpruned grid for atomic number  44.
 Defaulting to unpruned grid for atomic number  44.
 Defaulting to unpruned grid for atomic number  44.
 Defaulting to unpruned grid for atomic number  44.
 Defaulting to unpruned grid for atomic number  44.
 Defaulting to unpruned grid for atomic number  44.
 Harris En=  556.419860766954    
 Initial guess orbital symmetries:
       Occupied  (A) (A) (A) (A) (A) (A) (A) (A) (A) (A) (A) (A)
                 (A) (A) (A) (A) (A) (A) (A) (A) (A) (A) (A) (A)
                 (A) (A) (A) (A) (A) (A) (A) (A) (A) (A) (A) (A)
                 (A) (A) (A) (A) (A) (A) (A) (A) (A) (A) (A) (A)
                 (A) (A) (A) (A) (A) (A) (A) (A) (A) (A) (A) (A)
                 (A) (A) (A) (A) (A) (A) (A) (A) (A) (A) (A) (A)
                 (A) (A) (A) (A) (A) (A) (A) (A) (A) (A) (A) (A)
                 (A) (A) (A) (A) (A) (A) (A) (A) (A) (A) (A)
       Virtual   (A) (A) (A) (A) (A) (A) (A) (A) (A) (A) (A) (A)
                 (A) (A) (A) (A) (A) (A) (A) (A) (A) (A) (A) (A)
                 (A) (A) (A) (A) (A) (A) (A) (A) (A) (A) (A) (A)
                 (A) (A) (A) (A) (A) (A) (A) (A) (A) (A) (A) (A)
                 (A) (A) (A) (A) (A) (A) (A) (A) (A) (A) (A) (A)
                 (A) (A) (A)
 The electronic state of the initial guess is 1-A.
 Leave Link  401 at Mon Dec 23 00:23:05 2013, MaxMem= 3758096384 cpu:      14.5
 (Enter /global/apps/gaussian/03.e01/l502.exe)
 Closed shell SCF:
 Requested convergence on RMS density matrix=1.00D-04 within 180 cycles.
 Requested convergence on MAX density matrix=1.00D-02.
 Requested convergence on             energy=1.00D-02.
 Virtual orbitals will be shifted by   1.000 hartree.
 No special actions if energy rises.
 Using DIIS extrapolation, IDIIS=  1040.
 Integral symmetry usage will be decided dynamically.
 Keep R1 integrals in memory in canonical form, NReq=    83897842.
 IEnd=    124348 IEndB=    124348 NGot=3758096384 MDV=3677124663
 LenX=3677124663
 Symmetry not used in FoFDir.
 MinBra= 0 MaxBra= 2 Meth= 1.
 IRaf=       0 NMat=   1 IRICut=       1 DoRegI=T DoRafI=F ISym2E= 0 JSym2E=0.

 Cycle   1  Pass 1  IDiag  1:
 E= -964.305266725939    
 DIIS: error= 2.97D-02 at cycle   1 NSaved=   1.
 NSaved= 1 IEnMin= 1 EnMin= -964.305266725939     IErMin= 1 ErrMin= 2.97D-02
 ErrMax= 2.97D-02 EMaxC= 1.00D-01 BMatC= 4.24D-01 BMatP= 4.24D-01
 IDIUse=3 WtCom= 7.03D-01 WtEn= 2.97D-01
 Coeff-Com:  0.100D+01
 Coeff-En:   0.100D+01
 Coeff:      0.100D+01
 Gap=     0.358 Goal=   None    Shift=    1.000
 GapD=    0.358 DampG=1.000 DampE=0.250 DampFc=0.2500 IDamp=-1.
 Damping current iteration by 2.50D-01
 RMSDP=3.05D-03 MaxDP=6.39D-02              OVMax= 0.00D+00

 Cycle   2  Pass 1  IDiag  1:
 E= -964.392073491032     Delta-E=       -0.086806765093 Rises=F Damp=T
 DIIS: error= 2.30D-02 at cycle   2 NSaved=   2.
 NSaved= 2 IEnMin= 2 EnMin= -964.392073491032     IErMin= 2 ErrMin= 2.30D-02
 ErrMax= 2.30D-02 EMaxC= 1.00D-01 BMatC= 2.88D-01 BMatP= 4.24D-01
 IDIUse=3 WtCom= 7.70D-01 WtEn= 2.30D-01
 Coeff-Com: -0.435D+01 0.535D+01
 Coeff-En:   0.000D+00 0.100D+01
 Coeff:     -0.335D+01 0.435D+01
 Gap=     0.278 Goal=   None    Shift=    1.000
 RMSDP=3.52D-03 MaxDP=6.96D-02 DE=-8.68D-02 OVMax= 0.00D+00

 Cycle   3  Pass 1  IDiag  1:
 E= -964.706674669690     Delta-E=       -0.314601178658 Rises=F Damp=F
 DIIS: error= 5.98D-03 at cycle   3 NSaved=   3.
 NSaved= 3 IEnMin= 3 EnMin= -964.706674669690     IErMin= 3 ErrMin= 5.98D-03
 ErrMax= 5.98D-03 EMaxC= 1.00D-01 BMatC= 1.14D-02 BMatP= 2.88D-01
 IDIUse=3 WtCom= 9.40D-01 WtEn= 5.98D-02
 Coeff-Com:  0.400D+01-0.514D+01 0.214D+01
 Coeff-En:   0.000D+00 0.000D+00 0.100D+01
 Coeff:      0.376D+01-0.483D+01 0.207D+01
 Gap=     0.287 Goal=   None    Shift=    1.000
 RMSDP=7.72D-04 MaxDP=2.15D-02 DE=-3.15D-01 OVMax= 0.00D+00

 Cycle   4  Pass 1  IDiag  1:
 E= -964.728476602134     Delta-E=       -0.021801932444 Rises=F Damp=F
 DIIS: error= 5.11D-03 at cycle   4 NSaved=   4.
 NSaved= 4 IEnMin= 4 EnMin= -964.728476602134     IErMin= 4 ErrMin= 5.11D-03
 ErrMax= 5.11D-03 EMaxC= 1.00D-01 BMatC= 4.52D-03 BMatP= 1.14D-02
 IDIUse=3 WtCom= 9.49D-01 WtEn= 5.11D-02
 Coeff-Com: -0.631D+00 0.855D+00-0.176D+01 0.253D+01
 Coeff-En:   0.000D+00 0.000D+00 0.000D+00 0.100D+01
 Coeff:     -0.598D+00 0.811D+00-0.167D+01 0.245D+01
 Gap=     0.299 Goal=   None    Shift=    1.000
 RMSDP=5.95D-04 MaxDP=1.86D-02 DE=-2.18D-02 OVMax= 0.00D+00

 Cycle   5  Pass 1  IDiag  1:
 E= -964.740768935149     Delta-E=       -0.012292333015 Rises=F Damp=F
 DIIS: error= 5.31D-03 at cycle   5 NSaved=   5.
 NSaved= 5 IEnMin= 5 EnMin= -964.740768935149     IErMin= 4 ErrMin= 5.11D-03
 ErrMax= 5.31D-03 EMaxC= 1.00D-01 BMatC= 2.50D-03 BMatP= 4.52D-03
 IDIUse=3 WtCom= 9.47D-01 WtEn= 5.31D-02
 Coeff-Com: -0.262D+01 0.337D+01-0.154D+01-0.108D+01 0.287D+01
 Coeff-En:   0.000D+00 0.000D+00 0.000D+00 0.000D+00 0.100D+01
 Coeff:     -0.248D+01 0.319D+01-0.146D+01-0.102D+01 0.277D+01
 Gap=     0.304 Goal=   None    Shift=    1.000
 RMSDP=5.73D-04 MaxDP=1.80D-02 DE=-1.23D-02 OVMax= 0.00D+00

 Cycle   6  Pass 1  IDiag  1:
 E= -964.750550564494     Delta-E=       -0.009781629345 Rises=F Damp=F
 DIIS: error= 4.49D-03 at cycle   6 NSaved=   6.
 NSaved= 6 IEnMin= 6 EnMin= -964.750550564494     IErMin= 6 ErrMin= 4.49D-03
 ErrMax= 4.49D-03 EMaxC= 1.00D-01 BMatC= 1.64D-03 BMatP= 2.50D-03
 IDIUse=3 WtCom= 9.55D-01 WtEn= 4.49D-02
 Coeff-Com:  0.959D+00-0.127D+01 0.162D+01-0.115D+01-0.414D+01 0.498D+01
 Coeff-En:   0.000D+00 0.000D+00 0.000D+00 0.000D+00 0.000D+00 0.100D+01
 Coeff:      0.916D+00-0.121D+01 0.155D+01-0.110D+01-0.396D+01 0.481D+01
 Gap=     0.310 Goal=   None    Shift=    1.000
 RMSDP=6.56D-04 MaxDP=2.51D-02 DE=-9.78D-03 OVMax= 0.00D+00

 Cycle   7  Pass 1  IDiag  1:
 E= -964.759754478351     Delta-E=       -0.009203913858 Rises=F Damp=F
 DIIS: error= 3.91D-03 at cycle   7 NSaved=   7.
 NSaved= 7 IEnMin= 7 EnMin= -964.759754478351     IErMin= 7 ErrMin= 3.91D-03
 ErrMax= 3.91D-03 EMaxC= 1.00D-01 BMatC= 1.11D-03 BMatP= 1.64D-03
 IDIUse=3 WtCom= 9.61D-01 WtEn= 3.91D-02
 Coeff-Com:  0.210D+00-0.262D+00-0.471D+00 0.248D+01-0.255D+01-0.273D+01
 Coeff-Com:  0.431D+01
 Coeff-En:   0.000D+00 0.000D+00 0.000D+00 0.000D+00 0.000D+00 0.000D+00
 Coeff-En:   0.100D+01
 Coeff:      0.202D+00-0.252D+00-0.452D+00 0.238D+01-0.245D+01-0.262D+01
 Coeff:      0.418D+01
 Gap=     0.314 Goal=   None    Shift=    1.000
 RMSDP=6.52D-04 MaxDP=2.43D-02 DE=-9.20D-03 OVMax= 0.00D+00

 Cycle   8  Pass 1  IDiag  1:
 E= -964.766953182485     Delta-E=       -0.007198704134 Rises=F Damp=F
 DIIS: error= 3.11D-03 at cycle   8 NSaved=   8.
 NSaved= 8 IEnMin= 8 EnMin= -964.766953182485     IErMin= 8 ErrMin= 3.11D-03
 ErrMax= 3.11D-03 EMaxC= 1.00D-01 BMatC= 7.37D-04 BMatP= 1.11D-03
 IDIUse=3 WtCom= 9.69D-01 WtEn= 3.11D-02
 Coeff-Com: -0.959D+00 0.125D+01-0.133D+01 0.209D+01-0.604D+00-0.407D+00
 Coeff-Com: -0.262D+01 0.358D+01
 Coeff-En:   0.000D+00 0.000D+00 0.000D+00 0.000D+00 0.000D+00 0.000D+00
 Coeff-En:   0.000D+00 0.100D+01
 Coeff:     -0.929D+00 0.121D+01-0.129D+01 0.202D+01-0.585D+00-0.395D+00
 Coeff:     -0.254D+01 0.350D+01
 Gap=     0.316 Goal=   None    Shift=    1.000
 RMSDP=4.82D-04 MaxDP=1.67D-02 DE=-7.20D-03 OVMax= 0.00D+00

 Cycle   9  Pass 1  IDiag  1:
 E= -964.771147440784     Delta-E=       -0.004194258299 Rises=F Damp=F
 DIIS: error= 2.29D-03 at cycle   9 NSaved=   9.
 NSaved= 9 IEnMin= 9 EnMin= -964.771147440784     IErMin= 9 ErrMin= 2.29D-03
 ErrMax= 2.29D-03 EMaxC= 1.00D-01 BMatC= 4.80D-04 BMatP= 7.37D-04
 IDIUse=3 WtCom= 9.77D-01 WtEn= 2.29D-02
 Coeff-Com:  0.201D+00-0.260D+00 0.294D+00-0.194D+00-0.115D+01 0.336D+01
 Coeff-Com: -0.309D+01-0.227D+01 0.410D+01
 Coeff-En:   0.000D+00 0.000D+00 0.000D+00 0.000D+00 0.000D+00 0.000D+00
 Coeff-En:   0.000D+00 0.000D+00 0.100D+01
 Coeff:      0.196D+00-0.254D+00 0.287D+00-0.190D+00-0.112D+01 0.329D+01
 Coeff:     -0.302D+01-0.222D+01 0.403D+01
 Gap=     0.317 Goal=   None    Shift=    1.000
 RMSDP=3.88D-04 MaxDP=1.49D-02 DE=-4.19D-03 OVMax= 0.00D+00

 Cycle  10  Pass 1  IDiag  1:
 E= -964.773799482643     Delta-E=       -0.002652041859 Rises=F Damp=F
 DIIS: error= 1.84D-03 at cycle  10 NSaved=  10.
 NSaved=10 IEnMin=10 EnMin= -964.773799482643     IErMin=10 ErrMin= 1.84D-03
 ErrMax= 1.84D-03 EMaxC= 1.00D-01 BMatC= 3.14D-04 BMatP= 4.80D-04
 IDIUse=3 WtCom= 9.82D-01 WtEn= 1.84D-02
 Coeff-Com:  0.320D+00-0.418D+00 0.317D+00-0.107D+00-0.512D+00 0.152D+00
 Coeff-Com:  0.156D+01-0.148D+01-0.360D+01 0.477D+01
 Coeff-En:   0.000D+00 0.000D+00 0.000D+00 0.000D+00 0.000D+00 0.000D+00
 Coeff-En:   0.000D+00 0.000D+00 0.000D+00 0.100D+01
 Coeff:      0.314D+00-0.410D+00 0.311D+00-0.105D+00-0.503D+00 0.149D+00
 Coeff:      0.153D+01-0.145D+01-0.354D+01 0.470D+01
 Gap=     0.319 Goal=   None    Shift=    1.000
 RMSDP=3.34D-04 MaxDP=1.46D-02 DE=-2.65D-03 OVMax= 0.00D+00

 Cycle  11  Pass 1  IDiag  1:
 E= -964.775579124328     Delta-E=       -0.001779641686 Rises=F Damp=F
 DIIS: error= 1.64D-03 at cycle  11 NSaved=  11.
 NSaved=11 IEnMin=11 EnMin= -964.775579124328     IErMin=11 ErrMin= 1.64D-03
 ErrMax= 1.64D-03 EMaxC= 1.00D-01 BMatC= 2.01D-04 BMatP= 3.14D-04
 IDIUse=3 WtCom= 9.84D-01 WtEn= 1.64D-02
 Coeff-Com: -0.138D-01 0.205D-01-0.124D+00 0.410D+00-0.460D+00-0.570D-02
 Coeff-Com:  0.326D+00 0.579D+00-0.112D+01-0.254D+01 0.393D+01
 Coeff-En:   0.000D+00 0.000D+00 0.000D+00 0.000D+00 0.000D+00 0.000D+00
 Coeff-En:   0.000D+00 0.000D+00 0.000D+00 0.000D+00 0.100D+01
 Coeff:     -0.136D-01 0.202D-01-0.122D+00 0.403D+00-0.453D+00-0.560D-02
 Coeff:      0.320D+00 0.570D+00-0.110D+01-0.250D+01 0.388D+01
 Gap=     0.321 Goal=   None    Shift=    1.000
 RMSDP=2.75D-04 MaxDP=1.30D-02 DE=-1.78D-03 OVMax= 0.00D+00

 Cycle  12  Pass 1  IDiag  1:
 E= -964.776706333463     Delta-E=       -0.001127209134 Rises=F Damp=F
 DIIS: error= 1.43D-03 at cycle  12 NSaved=  12.
 NSaved=12 IEnMin=12 EnMin= -964.776706333463     IErMin=12 ErrMin= 1.43D-03
 ErrMax= 1.43D-03 EMaxC= 1.00D-01 BMatC= 1.32D-04 BMatP= 2.01D-04
 IDIUse=3 WtCom= 9.86D-01 WtEn= 1.43D-02
 Coeff-Com:  0.747D-01-0.982D-01 0.137D+00-0.106D+00-0.559D+00 0.148D+01
 Coeff-Com: -0.126D+01-0.504D+00 0.206D+01 0.745D+00-0.775D+01 0.679D+01
 Coeff-En:   0.000D+00 0.000D+00 0.000D+00 0.000D+00 0.000D+00 0.000D+00
 Coeff-En:   0.000D+00 0.000D+00 0.000D+00 0.000D+00 0.000D+00 0.100D+01
 Coeff:      0.736D-01-0.968D-01 0.135D+00-0.104D+00-0.551D+00 0.146D+01
 Coeff:     -0.124D+01-0.497D+00 0.203D+01 0.735D+00-0.764D+01 0.670D+01
 Gap=     0.320 Goal=   None    Shift=    1.000
 RMSDP=2.46D-04 MaxDP=1.23D-02 DE=-1.13D-03 OVMax= 0.00D+00

 Cycle  13  Pass 1  IDiag  1:
 E= -964.777471738224     Delta-E=       -0.000765404761 Rises=F Damp=F
 DIIS: error= 1.19D-03 at cycle  13 NSaved=  13.
 NSaved=13 IEnMin=13 EnMin= -964.777471738224     IErMin=13 ErrMin= 1.19D-03
 ErrMax= 1.19D-03 EMaxC= 1.00D-01 BMatC= 8.48D-05 BMatP= 1.32D-04
 IDIUse=3 WtCom= 9.88D-01 WtEn= 1.19D-02
 Coeff-Com:  0.117D+00-0.155D+00 0.234D+00-0.389D+00-0.985D-01 0.995D+00
 Coeff-Com: -0.661D+00-0.122D+01 0.136D+01 0.309D+01-0.716D+01 0.201D+01
 Coeff-Com:  0.287D+01
 Coeff-En:   0.000D+00 0.000D+00 0.000D+00 0.000D+00 0.000D+00 0.000D+00
 Coeff-En:   0.000D+00 0.000D+00 0.000D+00 0.000D+00 0.000D+00 0.000D+00
 Coeff-En:   0.100D+01
 Coeff:      0.115D+00-0.153D+00 0.232D+00-0.384D+00-0.973D-01 0.984D+00
 Coeff:     -0.653D+00-0.121D+01 0.135D+01 0.305D+01-0.707D+01 0.199D+01
 Coeff:      0.285D+01
 Gap=     0.321 Goal=   None    Shift=    1.000
 RMSDP=2.07D-04 MaxDP=1.04D-02 DE=-7.65D-04 OVMax= 0.00D+00

 Cycle  14  Pass 1  IDiag  1:
 E= -964.777960334306     Delta-E=       -0.000488596082 Rises=F Damp=F
 DIIS: error= 9.83D-04 at cycle  14 NSaved=  14.
 NSaved=14 IEnMin=14 EnMin= -964.777960334306     IErMin=14 ErrMin= 9.83D-04
 ErrMax= 9.83D-04 EMaxC= 1.00D-01 BMatC= 5.44D-05 BMatP= 8.48D-05
 IDIUse=3 WtCom= 9.90D-01 WtEn= 9.83D-03
 Coeff-Com: -0.438D-01 0.581D-01-0.663D-01 0.241D-01 0.294D+00-0.655D+00
 Coeff-Com:  0.715D+00-0.208D+00-0.436D+00-0.885D+00 0.288D+01 0.121D+00
 Coeff-Com: -0.723D+01 0.643D+01
 Coeff-En:   0.000D+00 0.000D+00 0.000D+00 0.000D+00 0.000D+00 0.000D+00
 Coeff-En:   0.000D+00 0.000D+00 0.000D+00 0.000D+00 0.000D+00 0.000D+00
 Coeff-En:   0.000D+00 0.100D+01
 Coeff:     -0.433D-01 0.575D-01-0.657D-01 0.239D-01 0.291D+00-0.648D+00
 Coeff:      0.708D+00-0.206D+00-0.432D+00-0.876D+00 0.285D+01 0.120D+00
 Coeff:     -0.716D+01 0.638D+01
 Gap=     0.322 Goal=   None    Shift=    1.000
 RMSDP=1.94D-04 MaxDP=9.49D-03 DE=-4.89D-04 OVMax= 0.00D+00

 Cycle  15  Pass 1  IDiag  1:
 E= -964.778291756818     Delta-E=       -0.000331422512 Rises=F Damp=F
 DIIS: error= 7.81D-04 at cycle  15 NSaved=  15.
 NSaved=15 IEnMin=15 EnMin= -964.778291756818     IErMin=15 ErrMin= 7.81D-04
 ErrMax= 7.81D-04 EMaxC= 1.00D-01 BMatC= 3.63D-05 BMatP= 5.44D-05
 IDIUse=3 WtCom= 9.92D-01 WtEn= 7.81D-03
 Coeff-Com:  0.459D-01-0.600D-01 0.789D-01-0.626D-01-0.278D+00 0.526D+00
 Coeff-Com: -0.597D-02-0.671D+00 0.813D+00-0.546D+00-0.403D+00 0.161D+01
 Coeff-Com: -0.794D+00-0.388D+01 0.463D+01
 Coeff-En:   0.000D+00 0.000D+00 0.000D+00 0.000D+00 0.000D+00 0.000D+00
 Coeff-En:   0.000D+00 0.000D+00 0.000D+00 0.000D+00 0.000D+00 0.000D+00
 Coeff-En:   0.000D+00 0.000D+00 0.100D+01
 Coeff:      0.456D-01-0.595D-01 0.783D-01-0.621D-01-0.276D+00 0.522D+00
 Coeff:     -0.592D-02-0.666D+00 0.807D+00-0.542D+00-0.400D+00 0.159D+01
 Coeff:     -0.788D+00-0.385D+01 0.460D+01
 Gap=     0.322 Goal=   None    Shift=    1.000
 RMSDP=1.57D-04 MaxDP=8.61D-03 DE=-3.31D-04 OVMax= 0.00D+00

 Cycle  16  Pass 1  IDiag  1:
 E= -964.778485193266     Delta-E=       -0.000193436448 Rises=F Damp=F
 DIIS: error= 6.14D-04 at cycle  16 NSaved=  16.
 NSaved=16 IEnMin=16 EnMin= -964.778485193266     IErMin=16 ErrMin= 6.14D-04
 ErrMax= 6.14D-04 EMaxC= 1.00D-01 BMatC= 2.32D-05 BMatP= 3.63D-05
 IDIUse=3 WtCom= 9.94D-01 WtEn= 6.14D-03
 Coeff-Com:  0.237D-01-0.317D-01 0.555D-01-0.108D+00 0.876D-02 0.249D+00
 Coeff-Com: -0.300D+00-0.103D+00 0.410D+00 0.392D+00-0.149D+01 0.878D-01
 Coeff-Com:  0.278D+01-0.237D+01-0.289D+01 0.428D+01
 Coeff-En:   0.000D+00 0.000D+00 0.000D+00 0.000D+00 0.000D+00 0.000D+00
 Coeff-En:   0.000D+00 0.000D+00 0.000D+00 0.000D+00 0.000D+00 0.000D+00
 Coeff-En:   0.000D+00 0.000D+00 0.000D+00 0.100D+01
 Coeff:      0.236D-01-0.315D-01 0.552D-01-0.108D+00 0.871D-02 0.247D+00
 Coeff:     -0.299D+00-0.102D+00 0.407D+00 0.390D+00-0.148D+01 0.872D-01
 Coeff:      0.277D+01-0.236D+01-0.287D+01 0.426D+01
 Gap=     0.322 Goal=   None    Shift=    1.000
 RMSDP=1.34D-04 MaxDP=7.97D-03 DE=-1.93D-04 OVMax= 0.00D+00

 Cycle  17  Pass 1  IDiag  1:
 E= -964.778601868149     Delta-E=       -0.000116674883 Rises=F Damp=F
 DIIS: error= 4.66D-04 at cycle  17 NSaved=  17.
 NSaved=17 IEnMin=17 EnMin= -964.778601868149     IErMin=17 ErrMin= 4.66D-04
 ErrMax= 4.66D-04 EMaxC= 1.00D-01 BMatC= 1.56D-05 BMatP= 2.32D-05
 IDIUse=3 WtCom= 9.95D-01 WtEn= 4.66D-03
 Coeff-Com: -0.245D-01 0.315D-01-0.459D-02-0.113D+00 0.296D+00-0.146D+00
 Coeff-Com: -0.189D+00 0.206D+00-0.323D+00 0.607D+00-0.170D+00-0.975D+00
 Coeff-Com: -0.532D-01 0.373D+01-0.340D+01-0.331D+01 0.483D+01
 Coeff-En:   0.000D+00 0.000D+00 0.000D+00 0.000D+00 0.000D+00 0.000D+00
 Coeff-En:   0.000D+00 0.000D+00 0.000D+00 0.000D+00 0.000D+00 0.000D+00
 Coeff-En:   0.000D+00 0.000D+00 0.000D+00 0.000D+00 0.100D+01
 Coeff:     -0.244D-01 0.313D-01-0.457D-02-0.112D+00 0.295D+00-0.145D+00
 Coeff:     -0.188D+00 0.205D+00-0.321D+00 0.604D+00-0.169D+00-0.971D+00
 Coeff:     -0.530D-01 0.371D+01-0.338D+01-0.329D+01 0.481D+01
 Gap=     0.322 Goal=   None    Shift=    1.000
 RMSDP=1.06D-04 MaxDP=6.68D-03 DE=-1.17D-04 OVMax= 0.00D+00

 Cycle  18  Pass 1  IDiag  1:
 E= -964.778668821374     Delta-E=       -0.000066953225 Rises=F Damp=F
 DIIS: error= 3.43D-04 at cycle  18 NSaved=  18.
 NSaved=18 IEnMin=18 EnMin= -964.778668821374     IErMin=18 ErrMin= 3.43D-04
 ErrMax= 3.43D-04 EMaxC= 1.00D-01 BMatC= 1.07D-05 BMatP= 1.56D-05
 IDIUse=3 WtCom= 9.97D-01 WtEn= 3.43D-03
 Coeff-Com:  0.240D-01-0.313D-01 0.353D-01 0.216D-01-0.287D+00 0.405D+00
 Coeff-Com: -0.446D-01-0.216D+00 0.158D+00-0.332D+00 0.321D+00 0.118D+01
 Coeff-Com: -0.250D+01-0.403D+00 0.469D+01-0.133D+01-0.781D+01 0.711D+01
 Coeff-En:   0.000D+00 0.000D+00 0.000D+00 0.000D+00 0.000D+00 0.000D+00
 Coeff-En:   0.000D+00 0.000D+00 0.000D+00 0.000D+00 0.000D+00 0.000D+00
 Coeff-En:   0.000D+00 0.000D+00 0.000D+00 0.000D+00 0.000D+00 0.100D+01
 Coeff:      0.239D-01-0.312D-01 0.352D-01 0.215D-01-0.286D+00 0.403D+00
 Coeff:     -0.444D-01-0.216D+00 0.157D+00-0.331D+00 0.319D+00 0.118D+01
 Coeff:     -0.249D+01-0.402D+00 0.468D+01-0.132D+01-0.779D+01 0.709D+01
 Gap=     0.322 Goal=   None    Shift=    1.000
 RMSDP=8.00D-05 MaxDP=5.48D-03 DE=-6.70D-05 OVMax= 0.00D+00

 SCF Done:  E(RHF) =  -964.778668821     A.U. after   18 cycles
             Convg  =    0.8004D-04             -V/T =  2.1012
             S**2   =   0.0000
 KE= 8.760900207616D+02 PE=-6.978917049323D+03 EE= 2.754540461569D+03
 Leave Link  502 at Mon Dec 23 00:23:22 2013, MaxMem= 3758096384 cpu:      23.8
 (Enter /global/apps/gaussian/03.e01/l601.exe)
 Copying SCF densities to generalized density rwf, ISCF=0 IROHF=0.

 **********************************************************************

            Population analysis using the SCF density.

 **********************************************************************

 Orbital symmetries:
       Occupied  (A) (A) (A) (A) (A) (A) (A) (A) (A) (A) (A) (A)
                 (A) (A) (A) (A) (A) (A) (A) (A) (A) (A) (A) (A)
                 (A) (A) (A) (A) (A) (A) (A) (A) (A) (A) (A) (A)
                 (A) (A) (A) (A) (A) (A) (A) (A) (A) (A) (A) (A)
                 (A) (A) (A) (A) (A) (A) (A) (A) (A) (A) (A) (A)
                 (A) (A) (A) (A) (A) (A) (A) (A) (A) (A) (A) (A)
                 (A) (A) (A) (A) (A) (A) (A) (A) (A) (A) (A) (A)
                 (A) (A) (A) (A) (A) (A) (A) (A) (A) (A) (A)
       Virtual   (A) (A) (A) (A) (A) (A) (A) (A) (A) (A) (A) (A)
                 (A) (A) (A) (A) (A) (A) (A) (A) (A) (A) (A) (A)
                 (A) (A) (A) (A) (A) (A) (A) (A) (A) (A) (A) (A)
                 (A) (A) (A) (A) (A) (A) (A) (A) (A) (A) (A) (A)
                 (A) (A) (A) (A) (A) (A) (A) (A) (A) (A) (A) (A)
                 (A) (A) (A)
 The electronic state is 1-A.
 Alpha  occ. eigenvalues --  -11.20023 -11.09554 -11.08712 -11.08572 -11.08300
 Alpha  occ. eigenvalues --  -11.08040 -11.08006 -11.07974 -11.07880 -11.07861
 Alpha  occ. eigenvalues --  -11.07296 -11.06997 -11.06966 -11.06552 -11.06505
 Alpha  occ. eigenvalues --  -11.06358 -11.06231 -11.06075 -11.05788 -11.05304
 Alpha  occ. eigenvalues --  -11.04882 -11.04760  -3.45093  -2.18081  -2.17856
 Alpha  occ. eigenvalues --   -2.17352  -1.16106  -1.13230  -1.12266  -1.06077
 Alpha  occ. eigenvalues --   -1.03462  -1.02801  -1.01733  -0.99869  -0.99169
 Alpha  occ. eigenvalues --   -0.95040  -0.93296  -0.91606  -0.90552  -0.89226
 Alpha  occ. eigenvalues --   -0.88300  -0.87431  -0.82085  -0.80547  -0.79683
 Alpha  occ. eigenvalues --   -0.78233  -0.77460  -0.73501  -0.68151  -0.67545
 Alpha  occ. eigenvalues --   -0.66518  -0.65237  -0.63950  -0.63227  -0.62465
 Alpha  occ. eigenvalues --   -0.61047  -0.60858  -0.59550  -0.58592  -0.57702
 Alpha  occ. eigenvalues --   -0.57019  -0.55774  -0.55440  -0.54917  -0.54561
 Alpha  occ. eigenvalues --   -0.54216  -0.53238  -0.52543  -0.51454  -0.50473
 Alpha  occ. eigenvalues --   -0.49653  -0.48553  -0.48213  -0.47963  -0.47038
 Alpha  occ. eigenvalues --   -0.46745  -0.46272  -0.45789  -0.45232  -0.44294
 Alpha  occ. eigenvalues --   -0.44058  -0.43317  -0.41101  -0.34406  -0.32924
 Alpha  occ. eigenvalues --   -0.32603  -0.32215  -0.31358  -0.30507  -0.30441
 Alpha  occ. eigenvalues --   -0.29507  -0.29319  -0.29136  -0.28231  -0.25367
 Alpha virt. eigenvalues --    0.06797   0.07765   0.10309   0.18303   0.18952
 Alpha virt. eigenvalues --    0.21145   0.22077   0.22440   0.23718   0.23990
 Alpha virt. eigenvalues --    0.28189   0.31599   0.34698   0.41127   0.41649
 Alpha virt. eigenvalues --    0.45104   0.47929   0.50906   0.55431   0.56809
 Alpha virt. eigenvalues --    0.57296   0.58393   0.59667   0.59796   0.60812
 Alpha virt. eigenvalues --    0.61586   0.62167   0.62934   0.63850   0.64158
 Alpha virt. eigenvalues --    0.66437   0.67565   0.68335   0.68740   0.69134
 Alpha virt. eigenvalues --    0.69656   0.70132   0.70938   0.71279   0.71887
 Alpha virt. eigenvalues --    0.72810   0.73325   0.75000   0.78795   0.79334
 Alpha virt. eigenvalues --    0.80129   0.80590   0.82778   0.83348   0.83997
 Alpha virt. eigenvalues --    0.84742   0.85285   0.86066   0.86215   0.87002
 Alpha virt. eigenvalues --    0.88360   0.88735   1.02397   1.02608   1.03841
 Alpha virt. eigenvalues --    1.06714   1.07285   1.08546
          Condensed to atoms (all electrons):
              1          2          3          4          5          6
     1  C    4.742155   0.383669  -0.033077   0.000897   0.000019   0.000674
     2  C    0.383669   4.792370   0.499454  -0.027260  -0.010080  -0.025543
     3  C   -0.033077   0.499454   4.800270   0.503148  -0.030512  -0.011391
     4  C    0.000897  -0.027260   0.503148   4.766928   0.501597  -0.029747
     5  C    0.000019  -0.010080  -0.030512   0.501597   4.784098   0.505347
     6  C    0.000674  -0.025543  -0.011391  -0.029747   0.505347   4.798707
     7  C   -0.022959   0.500585  -0.029052  -0.008976  -0.028096   0.503461
     8  P   -0.009327  -0.053847   0.003288   0.000117   0.004102  -0.071726
     9  Ru  -0.019742  -0.009354  -0.000757  -0.000493  -0.001795   0.004865
    10  C   -0.000145  -0.000370  -0.000002   0.000001  -0.000002  -0.000074
    11  Cl   0.000001   0.000000   0.000000   0.000000   0.000000   0.000000
    12  Cl  -0.004310   0.000013  -0.000001   0.000000   0.000000   0.000000
    13  C    0.000006   0.000313  -0.000002   0.000000   0.000014  -0.003495
    14  C    0.000000  -0.000001   0.000000   0.000000   0.000000  -0.000052
    15  C    0.000000   0.000000   0.000000   0.000000   0.000000   0.000001
    16  C    0.000000   0.000000   0.000000   0.000000   0.000000   0.000001
    17  C    0.000000   0.000000   0.000000   0.000000   0.000000  -0.000007
    18  C    0.000000  -0.000002   0.000000   0.000000  -0.000001  -0.000242
    19  C    0.000000   0.000000   0.000000   0.000000  -0.000001  -0.000039
    20  C   -0.000797  -0.000649  -0.000003   0.000001  -0.000003   0.000187
    21  C   -0.000480  -0.000451  -0.000017   0.000001   0.000001   0.000013
    22  C   -0.000003  -0.000002   0.000000   0.000000   0.000000   0.000000
    23  C    0.000001   0.000000   0.000000   0.000000   0.000000   0.000000
    24  C    0.000000   0.000000   0.000000   0.000000   0.000000   0.000000
    25  C   -0.000011   0.000000   0.000000   0.000000   0.000000  -0.000002
    26  C    0.000000   0.000000   0.000000   0.000000   0.000000   0.000000
    27  H    0.386037  -0.022054  -0.005605   0.000060   0.000000  -0.000017
    28  H    0.384683  -0.022063  -0.001165  -0.000016   0.000004  -0.000007
    29  H    0.390091  -0.022236   0.001387  -0.000024   0.000001   0.000007
    30  H   -0.004354  -0.024332   0.394037  -0.026264   0.001373   0.000045
    31  H   -0.000016   0.001248  -0.024297   0.392902  -0.024730   0.001322
    32  H    0.000000   0.000029   0.001343  -0.025239   0.393513  -0.024535
    33  H   -0.000013   0.001198   0.000029   0.001347  -0.026326   0.395780
    34  H    0.000002   0.000009   0.000000   0.000000   0.000001   0.000014
    35  H    0.000006   0.000010   0.000000   0.000000   0.000000   0.000002
    36  H    0.000000  -0.000002   0.000000   0.000000   0.000000  -0.000002
    37  H    0.000000   0.000000   0.000000   0.000000   0.000000   0.000000
    38  H    0.000000   0.000000   0.000000   0.000000   0.000000   0.000000
    39  H    0.000000   0.000000   0.000000   0.000000   0.000000   0.000000
    40  H    0.000000   0.000005   0.000000   0.000000  -0.000001   0.000036
    41  H    0.000000   0.000000   0.000000   0.000000   0.000000   0.000001
    42  H    0.000000   0.000000   0.000000   0.000000   0.000001  -0.000006
    43  H   -0.000139   0.000160  -0.000029  -0.000006  -0.000005  -0.000002
    44  H    0.000000   0.000001   0.000000   0.000000   0.000000   0.000000
    45  H    0.000000   0.000000   0.000000   0.000000   0.000000   0.000000
    46  H    0.000000   0.000000   0.000000   0.000000   0.000000   0.000000
    47  H    0.000001   0.000000   0.000000   0.000000   0.000000   0.000000
    48  H    0.000000   0.000000   0.000000   0.000000   0.000000   0.000000
    49  H    0.000000   0.000000   0.000000   0.000000   0.000000   0.000000
              7          8          9         10         11         12
     1  C   -0.022959  -0.009327  -0.019742  -0.000145   0.000001  -0.004310
     2  C    0.500585  -0.053847  -0.009354  -0.000370   0.000000   0.000013
     3  C   -0.029052   0.003288  -0.000757  -0.000002   0.000000  -0.000001
     4  C   -0.008976   0.000117  -0.000493   0.000001   0.000000   0.000000
     5  C   -0.028096   0.004102  -0.001795  -0.000002   0.000000   0.000000
     6  C    0.503461  -0.071726   0.004865  -0.000074   0.000000   0.000000
     7  C    4.983708   0.352097  -0.038683  -0.000982   0.000001  -0.000008
     8  P    0.352097   4.128368   0.030615  -0.000334  -0.002971  -0.000880
     9  Ru  -0.038683   0.030615  15.177663   0.226048   0.132821   0.145341
    10  C   -0.000982  -0.000334   0.226048   4.948687   0.000369  -0.000731
    11  Cl   0.000001  -0.002971   0.132821   0.000369   7.522993  -0.012295
    12  Cl  -0.000008  -0.000880   0.145341  -0.000731  -0.012295   7.471644
    13  C   -0.018747   0.368547  -0.035420  -0.000010  -0.000069   0.000000
    14  C    0.000096  -0.069091  -0.015297  -0.000496  -0.003395  -0.000001
    15  C   -0.000003   0.003962  -0.003006   0.000002   0.000024   0.000000
    16  C    0.000000   0.000069   0.000051   0.000000  -0.000001   0.000000
    17  C   -0.000002   0.003679  -0.001150   0.000000   0.000000   0.000000
    18  C   -0.000278  -0.061624   0.005802   0.000000  -0.000001   0.000000
    19  C   -0.000050  -0.011663   0.000418   0.000000   0.000000   0.000000
    20  C   -0.018587   0.352613  -0.030178   0.000000   0.000005  -0.000158
    21  C   -0.003533  -0.076244   0.004360   0.000000   0.000000  -0.000003
    22  C    0.000016   0.004333  -0.001521   0.000000   0.000000   0.000000
    23  C    0.000000   0.000098  -0.000473   0.000000   0.000000   0.000000
    24  C   -0.000002   0.003326  -0.000230   0.000000   0.000000  -0.000003
    25  C    0.000319  -0.053668  -0.006329   0.000000   0.000034  -0.000151
    26  C    0.000009  -0.009858  -0.011686  -0.000001  -0.003118  -0.000822
    27  H    0.001114   0.000093  -0.002609   0.000001   0.000000   0.000095
    28  H   -0.000329   0.000327  -0.004485  -0.000281   0.000000  -0.002532
    29  H   -0.003388  -0.006119  -0.006677  -0.000021   0.000002  -0.002705
    30  H    0.001143  -0.000099   0.000333   0.000000   0.000000   0.000000
    31  H    0.000011   0.000009  -0.000054   0.000000   0.000000   0.000000
    32  H    0.001220  -0.000125   0.000129   0.000000   0.000000   0.000000
    33  H   -0.025612  -0.012695   0.001801  -0.000005   0.000000   0.000000
    34  H    0.000042  -0.000226  -0.039517   0.378937  -0.000174   0.000008
    35  H    0.000013   0.000106  -0.037103   0.380934  -0.000036  -0.000194
    36  H    0.000072  -0.012909   0.008394  -0.001514  -0.004438  -0.000011
    37  H    0.000000  -0.000117   0.000159   0.000000   0.000005   0.000000
    38  H    0.000000   0.000008  -0.000170   0.000000   0.000000   0.000000
    39  H    0.000000  -0.000125   0.000187   0.000000   0.000000   0.000000
    40  H   -0.000357  -0.008455   0.001822   0.000000   0.000000   0.000000
    41  H   -0.000002   0.000025  -0.000203   0.000000   0.000000   0.000000
    42  H    0.000021   0.000171  -0.000278   0.000000   0.000000   0.000000
    43  H    0.000232  -0.014259   0.001654   0.000000   0.000000   0.000000
    44  H    0.000000  -0.000138   0.000097   0.000000   0.000000   0.000000
    45  H    0.000000   0.000008  -0.000029   0.000000   0.000000   0.000000
    46  H    0.000000  -0.000103   0.000405   0.000000   0.000000  -0.000001
    47  H    0.000000   0.000382  -0.000398  -0.000001  -0.001742  -0.001303
    48  H    0.000027  -0.005966  -0.000116  -0.000004  -0.002521  -0.000079
    49  H    0.000000   0.000118  -0.003871   0.000000   0.000071   0.000011
             13         14         15         16         17         18
     1  C    0.000006   0.000000   0.000000   0.000000   0.000000   0.000000
     2  C    0.000313  -0.000001   0.000000   0.000000   0.000000  -0.000002
     3  C   -0.000002   0.000000   0.000000   0.000000   0.000000   0.000000
     4  C    0.000000   0.000000   0.000000   0.000000   0.000000   0.000000
     5  C    0.000014   0.000000   0.000000   0.000000   0.000000  -0.000001
     6  C   -0.003495  -0.000052   0.000001   0.000001  -0.000007  -0.000242
     7  C   -0.018747   0.000096  -0.000003   0.000000  -0.000002  -0.000278
     8  P    0.368547  -0.069091   0.003962   0.000069   0.003679  -0.061624
     9  Ru  -0.035420  -0.015297  -0.003006   0.000051  -0.001150   0.005802
    10  C   -0.000010  -0.000496   0.000002   0.000000   0.000000   0.000000
    11  Cl  -0.000069  -0.003395   0.000024  -0.000001   0.000000  -0.000001
    12  Cl   0.000000  -0.000001   0.000000   0.000000   0.000000   0.000000
    13  C    4.974080   0.510713  -0.028017  -0.009053  -0.029462   0.496450
    14  C    0.510713   4.783978   0.506333  -0.029279  -0.011194  -0.027519
    15  C   -0.028017   0.506333   4.774442   0.501071  -0.030409  -0.010099
    16  C   -0.009053  -0.029279   0.501071   4.754144   0.503064  -0.026782
    17  C   -0.029462  -0.011194  -0.030409   0.503064   4.799720   0.500065
    18  C    0.496450  -0.027519  -0.010099  -0.026782   0.500065   4.778771
    19  C   -0.024346   0.000712   0.000017   0.000856  -0.031865   0.383852
    20  C   -0.022311   0.000417  -0.000004   0.000000  -0.000009  -0.000734
    21  C    0.000164  -0.000004   0.000000   0.000000  -0.000001   0.000099
    22  C   -0.000003   0.000000   0.000000   0.000000   0.000000   0.000000
    23  C    0.000001   0.000000   0.000000   0.000000   0.000000   0.000000
    24  C   -0.000006   0.000000   0.000000   0.000000   0.000000  -0.000002
    25  C   -0.000537   0.000011   0.000000   0.000000  -0.000001   0.000044
    26  C   -0.000543  -0.000149  -0.000002   0.000000   0.000001  -0.000020
    27  H    0.000000   0.000000   0.000000   0.000000   0.000000   0.000000
    28  H    0.000000   0.000000   0.000000   0.000000   0.000000   0.000000
    29  H    0.000023   0.000000   0.000000   0.000000   0.000000   0.000000
    30  H    0.000000   0.000000   0.000000   0.000000   0.000000   0.000000
    31  H    0.000000   0.000000   0.000000   0.000000   0.000000   0.000000
    32  H    0.000000   0.000000   0.000000   0.000000   0.000000   0.000001
    33  H    0.000414  -0.000044  -0.000006  -0.000006  -0.000013   0.000134
    34  H    0.000034  -0.000047   0.000007   0.000000   0.000000   0.000000
    35  H    0.000000   0.000005   0.000000   0.000000   0.000000   0.000000
    36  H   -0.024430   0.394799  -0.024802   0.001324   0.000033   0.001143
    37  H    0.001219  -0.023941   0.394326  -0.024994   0.001336   0.000027
    38  H    0.000012   0.001334  -0.024509   0.392994  -0.024157   0.001236
    39  H    0.001182   0.000042   0.001372  -0.026176   0.393432  -0.024749
    40  H   -0.005031   0.000028   0.000000  -0.000024   0.001430  -0.022290
    41  H    0.000689  -0.000015   0.000002   0.000010  -0.003060  -0.021972
    42  H    0.000664  -0.000014   0.000003   0.000011  -0.003265  -0.022138
    43  H    0.000060  -0.000001   0.000000   0.000000   0.000000   0.000015
    44  H    0.000000   0.000000   0.000000   0.000000   0.000000   0.000000
    45  H    0.000000   0.000000   0.000000   0.000000   0.000000   0.000000
    46  H    0.000000   0.000000   0.000000   0.000000   0.000000   0.000000
    47  H   -0.000019   0.000001   0.000000   0.000000   0.000000   0.000000
    48  H   -0.000036   0.000048  -0.000016  -0.000001   0.000000  -0.000076
    49  H    0.000019   0.000002   0.000000   0.000000   0.000000   0.000001
             19         20         21         22         23         24
     1  C    0.000000  -0.000797  -0.000480  -0.000003   0.000001   0.000000
     2  C    0.000000  -0.000649  -0.000451  -0.000002   0.000000   0.000000
     3  C    0.000000  -0.000003  -0.000017   0.000000   0.000000   0.000000
     4  C    0.000000   0.000001   0.000001   0.000000   0.000000   0.000000
     5  C   -0.000001  -0.000003   0.000001   0.000000   0.000000   0.000000
     6  C   -0.000039   0.000187   0.000013   0.000000   0.000000   0.000000
     7  C   -0.000050  -0.018587  -0.003533   0.000016   0.000000  -0.000002
     8  P   -0.011663   0.352613  -0.076244   0.004333   0.000098   0.003326
     9  Ru   0.000418  -0.030178   0.004360  -0.001521  -0.000473  -0.000230
    10  C    0.000000   0.000000   0.000000   0.000000   0.000000   0.000000
    11  Cl   0.000000   0.000005   0.000000   0.000000   0.000000   0.000000
    12  Cl   0.000000  -0.000158  -0.000003   0.000000   0.000000  -0.000003
    13  C   -0.024346  -0.022311   0.000164  -0.000003   0.000001  -0.000006
    14  C    0.000712   0.000417  -0.000004   0.000000   0.000000   0.000000
    15  C    0.000017  -0.000004   0.000000   0.000000   0.000000   0.000000
    16  C    0.000856   0.000000   0.000000   0.000000   0.000000   0.000000
    17  C   -0.031865  -0.000009  -0.000001   0.000000   0.000000   0.000000
    18  C    0.383852  -0.000734   0.000099   0.000000   0.000000  -0.000002
    19  C    4.734960  -0.002565  -0.002458  -0.000090   0.000004   0.000010
    20  C   -0.002565   4.985004   0.502905  -0.028108  -0.009133  -0.029299
    21  C   -0.002458   0.502905   4.797791   0.507690  -0.029970  -0.011562
    22  C   -0.000090  -0.028108   0.507690   4.781019   0.500268  -0.030129
    23  C    0.000004  -0.009133  -0.029970   0.500268   4.758179   0.504270
    24  C    0.000010  -0.029299  -0.011562  -0.030129   0.504270   4.791197
    25  C   -0.000015   0.504089  -0.025833  -0.009857  -0.026551   0.497862
    26  C    0.000000  -0.024806   0.000710   0.000018   0.000839  -0.030626
    27  H    0.000000   0.000022   0.000020   0.000000   0.000000   0.000000
    28  H    0.000000  -0.000006   0.000004   0.000000   0.000000   0.000000
    29  H    0.000000  -0.000039  -0.000131  -0.000006  -0.000003  -0.000006
    30  H    0.000000   0.000000   0.000000   0.000000   0.000000   0.000000
    31  H    0.000000   0.000000   0.000000   0.000000   0.000000   0.000000
    32  H    0.000000   0.000000   0.000000   0.000000   0.000000   0.000000
    33  H   -0.000127   0.000037   0.000000   0.000000   0.000000   0.000000
    34  H    0.000000   0.000000   0.000000   0.000000   0.000000   0.000000
    35  H    0.000000   0.000000   0.000000   0.000000   0.000000   0.000000
    36  H   -0.000013   0.000040  -0.000001   0.000000   0.000000   0.000000
    37  H    0.000000   0.000000   0.000000   0.000000   0.000000   0.000000
    38  H   -0.000016   0.000000   0.000000   0.000000   0.000000   0.000000
    39  H   -0.003800   0.000000   0.000000   0.000000   0.000000   0.000000
    40  H    0.387148  -0.002759   0.000053  -0.000160  -0.000005  -0.000013
    41  H    0.382885   0.000084   0.000030   0.000008  -0.000001  -0.000001
    42  H    0.382464   0.000024   0.000034   0.000001   0.000000   0.000000
    43  H   -0.000471  -0.025729   0.396912  -0.026644   0.001378   0.000030
    44  H    0.000001   0.001229  -0.024704   0.393796  -0.025102   0.001331
    45  H    0.000000   0.000013   0.001345  -0.024890   0.392796  -0.024080
    46  H    0.000000   0.001161   0.000047   0.001355  -0.026059   0.393768
    47  H    0.000000  -0.000425  -0.000008   0.000003  -0.000016  -0.000770
    48  H    0.000000  -0.004010   0.000015   0.000001  -0.000023   0.001274
    49  H    0.000000   0.001185  -0.000018   0.000001   0.000054  -0.005322
             25         26         27         28         29         30
     1  C   -0.000011   0.000000   0.386037   0.384683   0.390091  -0.004354
     2  C    0.000000   0.000000  -0.022054  -0.022063  -0.022236  -0.024332
     3  C    0.000000   0.000000  -0.005605  -0.001165   0.001387   0.394037
     4  C    0.000000   0.000000   0.000060  -0.000016  -0.000024  -0.026264
     5  C    0.000000   0.000000   0.000000   0.000004   0.000001   0.001373
     6  C   -0.000002   0.000000  -0.000017  -0.000007   0.000007   0.000045
     7  C    0.000319   0.000009   0.001114  -0.000329  -0.003388   0.001143
     8  P   -0.053668  -0.009858   0.000093   0.000327  -0.006119  -0.000099
     9  Ru  -0.006329  -0.011686  -0.002609  -0.004485  -0.006677   0.000333
    10  C    0.000000  -0.000001   0.000001  -0.000281  -0.000021   0.000000
    11  Cl   0.000034  -0.003118   0.000000   0.000000   0.000002   0.000000
    12  Cl  -0.000151  -0.000822   0.000095  -0.002532  -0.002705   0.000000
    13  C   -0.000537  -0.000543   0.000000   0.000000   0.000023   0.000000
    14  C    0.000011  -0.000149   0.000000   0.000000   0.000000   0.000000
    15  C    0.000000  -0.000002   0.000000   0.000000   0.000000   0.000000
    16  C    0.000000   0.000000   0.000000   0.000000   0.000000   0.000000
    17  C   -0.000001   0.000001   0.000000   0.000000   0.000000   0.000000
    18  C    0.000044  -0.000020   0.000000   0.000000   0.000000   0.000000
    19  C   -0.000015   0.000000   0.000000   0.000000   0.000000   0.000000
    20  C    0.504089  -0.024806   0.000022  -0.000006  -0.000039   0.000000
    21  C   -0.025833   0.000710   0.000020   0.000004  -0.000131   0.000000
    22  C   -0.009857   0.000018   0.000000   0.000000  -0.000006   0.000000
    23  C   -0.026551   0.000839   0.000000   0.000000  -0.000003   0.000000
    24  C    0.497862  -0.030626   0.000000   0.000000  -0.000006   0.000000
    25  C    4.768866   0.383898   0.000000   0.000001   0.000059   0.000000
    26  C    0.383898   4.743730   0.000000   0.000000   0.000000   0.000000
    27  H    0.000000   0.000000   0.604780  -0.018479  -0.018708  -0.000130
    28  H    0.000001   0.000000  -0.018479   0.587952  -0.018638   0.000110
    29  H    0.000059   0.000000  -0.018708  -0.018638   0.598040   0.000067
    30  H    0.000000   0.000000  -0.000130   0.000110   0.000067   0.590146
    31  H    0.000000   0.000000  -0.000002   0.000000   0.000000  -0.003565
    32  H    0.000000   0.000000   0.000000   0.000000   0.000000  -0.000032
    33  H   -0.000001   0.000000   0.000000   0.000000  -0.000001   0.000002
    34  H    0.000000   0.000000   0.000000   0.000006   0.000000   0.000000
    35  H    0.000000   0.000000   0.000000   0.000035   0.000002   0.000000
    36  H    0.000002  -0.000017   0.000000   0.000000   0.000000   0.000000
    37  H    0.000000   0.000000   0.000000   0.000000   0.000000   0.000000
    38  H    0.000000   0.000000   0.000000   0.000000   0.000000   0.000000
    39  H    0.000000   0.000000   0.000000   0.000000   0.000000   0.000000
    40  H   -0.000079   0.000001   0.000000   0.000000   0.000000   0.000000
    41  H    0.000005   0.000001   0.000000   0.000000   0.000000   0.000000
    42  H    0.000001   0.000000   0.000000   0.000000   0.000000   0.000000
    43  H    0.001195  -0.000013  -0.000009   0.000005  -0.000162   0.000000
    44  H    0.000027   0.000000   0.000000   0.000000  -0.000001   0.000000
    45  H    0.001228  -0.000015   0.000000   0.000000   0.000000   0.000000
    46  H   -0.024301  -0.003911   0.000000   0.000000   0.000000   0.000000
    47  H   -0.021633   0.383180   0.000000   0.000000  -0.000006   0.000000
    48  H   -0.022639   0.386316   0.000000   0.000000   0.000001   0.000000
    49  H   -0.022062   0.386573   0.000000   0.000000   0.000000   0.000000
             31         32         33         34         35         36
     1  C   -0.000016   0.000000  -0.000013   0.000002   0.000006   0.000000
     2  C    0.001248   0.000029   0.001198   0.000009   0.000010  -0.000002
     3  C   -0.024297   0.001343   0.000029   0.000000   0.000000   0.000000
     4  C    0.392902  -0.025239   0.001347   0.000000   0.000000   0.000000
     5  C   -0.024730   0.393513  -0.026326   0.000001   0.000000   0.000000
     6  C    0.001322  -0.024535   0.395780   0.000014   0.000002  -0.000002
     7  C    0.000011   0.001220  -0.025612   0.000042   0.000013   0.000072
     8  P    0.000009  -0.000125  -0.012695  -0.000226   0.000106  -0.012909
[...]
 Coeff:      0.000D+00 0.298D-04 0.557D-02 0.000D+00 0.433D+00 0.878D-04
 Coeff:      0.146D-03 0.380D+00 0.181D+00
 Gap=     0.000 Goal=   None    Shift=    0.000
 RMSDP=1.09D-02 MaxDP=4.07D-01 DE= 3.23D-02 OVMax= 0.00D+00

 Cycle 264  Pass 1  IDiag  1:
 E= -971.870332180859     Delta-E=       -0.032201646829 Rises=F Damp=F
 DIIS: error= 2.62D-03 at cycle 264 NSaved=  16.
 NSaved=16 IEnMin= 3 EnMin= -971.870753245936     IErMin= 3 ErrMin= 1.83D-03
 ErrMax= 2.62D-03 EMaxC= 1.00D-01 BMatC= 6.02D-04 BMatP= 3.38D-04
 IDIUse=3 WtCom= 9.88D-01 WtEn= 1.17D-02
 Large coefficients: NSaved= 16 BigCof=   14.82 CofMax=   10.00 Det=-2.70D-08
 Inversion failed.  Reducing to 15 matrices.
 Large coefficients: NSaved= 15 BigCof=   12.75 CofMax=   10.00 Det=-3.02D-08
 Inversion failed.  Reducing to 14 matrices.
 Large coefficients: NSaved= 14 BigCof=   10.65 CofMax=   10.00 Det=-3.31D-08
 Inversion failed.  Reducing to 13 matrices.
 EnCoef did   100 forward-backward iterations
 Coeff-Com: -0.391D+01 0.792D+01 0.422D+01-0.219D+01-0.374D+01-0.582D+01
 Coeff-Com:  0.459D+01 0.339D+01-0.490D+01 0.164D+00 0.128D+01 0.487D-01
 Coeff-Com: -0.456D-01
 Coeff-En:   0.285D-03 0.101D-04 0.415D-04 0.000D+00 0.295D-04 0.101D-03
 Coeff-En:   0.000D+00 0.415D-04 0.280D+00 0.202D+00 0.127D+00 0.178D+00
 Coeff-En:   0.212D+00
 Coeff:     -0.386D+01 0.782D+01 0.417D+01-0.217D+01-0.370D+01-0.575D+01
 Coeff:      0.453D+01 0.335D+01-0.484D+01 0.165D+00 0.127D+01 0.502D-01
 Coeff:     -0.426D-01
 Gap=    -0.003 Goal=   None    Shift=    0.000
 RMSDP=1.09D-02 MaxDP=4.14D-01 DE=-3.22D-02 OVMax= 0.00D+00

 Cycle 265  Pass 1  IDiag  1:
 E= -971.836695471895     Delta-E=        0.033636708965 Rises=F Damp=F
 DIIS: error= 1.23D-02 at cycle 265 NSaved=  14.
 NSaved=14 IEnMin= 3 EnMin= -971.870753245936     IErMin= 3 ErrMin= 1.83D-03
 ErrMax= 1.23D-02 EMaxC= 1.00D-01 BMatC= 9.95D-03 BMatP= 3.38D-04
 IDIUse=2 WtCom= 0.00D+00 WtEn= 1.00D+00
 EnCoef did   100 forward-backward iterations
 Coeff-En:   0.342D-03 0.121D-04 0.497D-04 0.000D+00 0.353D-04 0.120D-03
 Coeff-En:   0.000D+00 0.497D-04 0.491D+00 0.117D+00 0.151D-01 0.163D+00
 Coeff-En:   0.197D+00 0.164D-01
 Coeff:      0.342D-03 0.121D-04 0.497D-04 0.000D+00 0.353D-04 0.120D-03
 Coeff:      0.000D+00 0.497D-04 0.491D+00 0.117D+00 0.151D-01 0.163D+00
 Coeff:      0.197D+00 0.164D-01
 Gap=     0.000 Goal=   None    Shift=    0.000
 RMSDP=1.09D-02 MaxDP=4.13D-01 DE= 3.36D-02 OVMax= 0.00D+00

 Cycle 266  Pass 1  IDiag  1:
 E= -971.870367040851     Delta-E=       -0.033671568957 Rises=F Damp=F
 DIIS: error= 2.70D-03 at cycle 266 NSaved=  15.
 NSaved=15 IEnMin= 3 EnMin= -971.870753245936     IErMin= 3 ErrMin= 1.83D-03
 ErrMax= 2.70D-03 EMaxC= 1.00D-01 BMatC= 6.27D-04 BMatP= 3.38D-04
 IDIUse=3 WtCom= 9.88D-01 WtEn= 1.17D-02
 Large coefficients: NSaved= 15 BigCof=   11.11 CofMax=   10.00 Det=-3.52D-08
 Inversion failed.  Reducing to 14 matrices.
 Large coefficients: NSaved= 14 BigCof=   10.91 CofMax=   10.00 Det=-3.59D-08
 Inversion failed.  Reducing to 13 matrices.
 EnCoef did   100 forward-backward iterations
 Coeff-Com: -0.576D+01 0.855D+01 0.313D+01 0.340D+00-0.527D+00-0.521D+00
 Coeff-Com:  0.126D+01 0.901D+00-0.527D+01 0.201D-01 0.737D+00 0.423D-01
 Coeff-Com: -0.190D+01
 Coeff-En:   0.000D+00 0.000D+00 0.928D-03 0.000D+00 0.000D+00 0.000D+00
 Coeff-En:   0.000D+00 0.000D+00 0.212D+00 0.554D+00 0.928D-03 0.173D+00
 Coeff-En:   0.591D-01
 Coeff:     -0.569D+01 0.845D+01 0.309D+01 0.336D+00-0.521D+00-0.515D+00
 Coeff:      0.125D+01 0.891D+00-0.521D+01 0.263D-01 0.728D+00 0.438D-01
 Coeff:     -0.188D+01
 Gap=    -0.003 Goal=   None    Shift=    0.000
 RMSDP=1.09D-02 MaxDP=4.12D-01 DE=-3.37D-02 OVMax= 0.00D+00

 Cycle 267  Pass 1  IDiag  1:
 E= -971.837706214889     Delta-E=        0.032660825962 Rises=F Damp=F
 DIIS: error= 1.22D-02 at cycle 267 NSaved=  14.
 NSaved=14 IEnMin= 3 EnMin= -971.870753245936     IErMin= 3 ErrMin= 1.83D-03
 ErrMax= 1.22D-02 EMaxC= 1.00D-01 BMatC= 9.90D-03 BMatP= 3.38D-04
 IDIUse=2 WtCom= 0.00D+00 WtEn= 1.00D+00
 EnCoef did   100 forward-backward iterations
 Rare condition: small coef for last iteration:  0.183D-14
 Coeff-En:   0.000D+00 0.000D+00 0.527D-02 0.000D+00 0.000D+00 0.000D+00
 Coeff-En:   0.000D+00 0.000D+00 0.000D+00 0.314D-01 0.373D-01 0.000D+00
 Coeff-En:   0.754D+00 0.172D+00
 Coeff:      0.000D+00 0.000D+00 0.527D-02 0.000D+00 0.000D+00 0.000D+00
 Coeff:      0.000D+00 0.000D+00 0.000D+00 0.314D-01 0.373D-01 0.000D+00
 Coeff:      0.754D+00 0.172D+00
 Gap=     0.001 Goal=   None    Shift=    0.000
 RMSDP=6.06D-03 MaxDP=2.16D-01 DE= 3.27D-02 OVMax= 0.00D+00

 Cycle 268  Pass 1  IDiag  1:
 E= -971.853790268255     Delta-E=       -0.016084053366 Rises=F Damp=F
 DIIS: error= 9.01D-03 at cycle 268 NSaved=  15.
 NSaved=15 IEnMin= 3 EnMin= -971.870753245936     IErMin= 3 ErrMin= 1.83D-03
 ErrMax= 9.01D-03 EMaxC= 1.00D-01 BMatC= 7.10D-03 BMatP= 3.38D-04
 IDIUse=3 WtCom= 9.88D-01 WtEn= 1.17D-02
 EnCoef did   100 forward-backward iterations
 Coeff-Com: -0.559D+01 0.838D+01 0.308D+01 0.396D+00-0.761D+00-0.752D+00
 Coeff-Com:  0.129D+01 0.989D+00-0.499D+01-0.209D-01 0.705D+00 0.424D-01
 Coeff-Com: -0.177D+01-0.701D-02 0.160D-01
 Coeff-En:   0.000D+00 0.000D+00 0.335D-05 0.000D+00 0.000D+00 0.000D+00
 Coeff-En:   0.000D+00 0.000D+00 0.000D+00 0.464D+00 0.583D-04 0.168D-01
 Coeff-En:   0.355D+00 0.154D+00 0.102D-01
 Coeff:     -0.553D+01 0.828D+01 0.305D+01 0.391D+00-0.752D+00-0.744D+00
 Coeff:      0.128D+01 0.978D+00-0.494D+01-0.152D-01 0.697D+00 0.421D-01
 Coeff:     -0.175D+01-0.513D-02 0.159D-01
 Gap=     0.001 Goal=   None    Shift=    0.000
 RMSDP=6.19D-03 MaxDP=2.22D-01 DE=-1.61D-02 OVMax= 0.00D+00

 Cycle 269  Pass 1  IDiag  1:
 E= -971.837514545174     Delta-E=        0.016275723081 Rises=F Damp=F
 DIIS: error= 1.22D-02 at cycle 269 NSaved=  16.
 NSaved=16 IEnMin= 3 EnMin= -971.870753245936     IErMin= 3 ErrMin= 1.83D-03
 ErrMax= 1.22D-02 EMaxC= 1.00D-01 BMatC= 9.89D-03 BMatP= 3.38D-04
 IDIUse=2 WtCom= 0.00D+00 WtEn= 1.00D+00
 EnCoef did   100 forward-backward iterations
 Coeff-En:   0.000D+00 0.000D+00 0.399D-05 0.000D+00 0.000D+00 0.000D+00
 Coeff-En:   0.000D+00 0.000D+00 0.130D+00 0.471D+00 0.352D-02 0.100D-01
 Coeff-En:   0.219D+00 0.157D+00 0.179D-03 0.941D-02
 Coeff:      0.000D+00 0.000D+00 0.399D-05 0.000D+00 0.000D+00 0.000D+00
 Coeff:      0.000D+00 0.000D+00 0.130D+00 0.471D+00 0.352D-02 0.100D-01
 Coeff:      0.219D+00 0.157D+00 0.179D-03 0.941D-02
 Gap=     0.000 Goal=   None    Shift=    0.000
 RMSDP=1.09D-02 MaxDP=4.09D-01 DE= 1.63D-02 OVMax= 0.00D+00

 Cycle 270  Pass 1  IDiag  1:
 E= -971.870353174511     Delta-E=       -0.032838629337 Rises=F Damp=F
 DIIS: error= 2.73D-03 at cycle 270 NSaved=  17.
 NSaved=17 IEnMin= 3 EnMin= -971.870753245936     IErMin= 3 ErrMin= 1.83D-03
 ErrMax= 2.73D-03 EMaxC= 1.00D-01 BMatC= 6.50D-04 BMatP= 3.38D-04
 IDIUse=3 WtCom= 9.88D-01 WtEn= 1.17D-02
 Large coefficients: NSaved= 17 BigCof=   10.57 CofMax=   10.00 Det=-2.86D-08
 Inversion failed.  Reducing to 16 matrices.
 Large coefficients: NSaved= 16 BigCof=   10.55 CofMax=   10.00 Det=-3.27D-08
 Inversion failed.  Reducing to 15 matrices.
 Large coefficients: NSaved= 15 BigCof=   10.40 CofMax=   10.00 Det=-3.49D-08
 Inversion failed.  Reducing to 14 matrices.
 Large coefficients: NSaved= 14 BigCof=   10.42 CofMax=   10.00 Det=-3.56D-08
 Inversion failed.  Reducing to 13 matrices.
 EnCoef did   100 forward-backward iterations
 Coeff-Com: -0.473D+01 0.836D+01 0.414D+01-0.226D+01-0.320D+01-0.493D+01
 Coeff-Com:  0.422D+01 0.317D+01-0.428D+01-0.145D+00 0.118D+01 0.490D-01
 Coeff-Com: -0.582D+00
 Coeff-En:   0.000D+00 0.000D+00 0.253D-03 0.000D+00 0.000D+00 0.000D+00
 Coeff-En:   0.000D+00 0.000D+00 0.000D+00 0.309D+00 0.119D+00 0.180D+00
 Coeff-En:   0.392D+00
 Coeff:     -0.468D+01 0.826D+01 0.410D+01-0.223D+01-0.316D+01-0.487D+01
 Coeff:      0.417D+01 0.313D+01-0.423D+01-0.140D+00 0.117D+01 0.505D-01
 Coeff:     -0.570D+00
 Gap=    -0.003 Goal=   None    Shift=    0.000
 RMSDP=1.09D-02 MaxDP=4.09D-01 DE=-3.28D-02 OVMax= 0.00D+00

 Cycle 271  Pass 1  IDiag  1:
 E= -971.836899386341     Delta-E=        0.033453788170 Rises=F Damp=F
 DIIS: error= 1.23D-02 at cycle 271 NSaved=  14.
 NSaved=14 IEnMin= 3 EnMin= -971.870753245936     IErMin= 3 ErrMin= 1.83D-03
 ErrMax= 1.23D-02 EMaxC= 1.00D-01 BMatC= 9.94D-03 BMatP= 3.38D-04
 IDIUse=2 WtCom= 0.00D+00 WtEn= 1.00D+00
 EnCoef did   100 forward-backward iterations
 Rare condition: small coef for last iteration: -0.254D-14
 Coeff-En:   0.000D+00 0.000D+00 0.226D-02 0.000D+00 0.000D+00 0.000D+00
 Coeff-En:   0.000D+00 0.000D+00 0.000D+00 0.139D-01 0.199D-01 0.932D-03
 Coeff-En:   0.783D+00 0.180D+00
 Coeff:      0.000D+00 0.000D+00 0.226D-02 0.000D+00 0.000D+00 0.000D+00
 Coeff:      0.000D+00 0.000D+00 0.000D+00 0.139D-01 0.199D-01 0.932D-03
 Coeff:      0.783D+00 0.180D+00
 Gap=     0.000 Goal=   None    Shift=    0.000
 RMSDP=7.66D-03 MaxDP=2.59D-01 DE= 3.35D-02 OVMax= 0.00D+00

 Cycle 272  Pass 1  IDiag  1:
 E= -971.859535391595     Delta-E=       -0.022636005254 Rises=F Damp=F
 DIIS: error= 7.00D-03 at cycle 272 NSaved=  15.
 NSaved=15 IEnMin= 3 EnMin= -971.870753245936     IErMin= 3 ErrMin= 1.83D-03
 ErrMax= 7.00D-03 EMaxC= 1.00D-01 BMatC= 4.60D-03 BMatP= 3.38D-04
 IDIUse=3 WtCom= 9.88D-01 WtEn= 1.17D-02
 EnCoef did   100 forward-backward iterations
 Coeff-Com: -0.779D+01 0.939D+01 0.302D+01-0.152D+00 0.997D+00 0.154D+01
 Coeff-Com:  0.400D+00-0.314D+00-0.215D+01-0.183D+01 0.731D+00-0.850D+00
 Coeff-Com: -0.296D+01 0.839D+00 0.129D+00
 Coeff-En:   0.000D+00 0.000D+00 0.782D-06 0.000D+00 0.000D+00 0.000D+00
 Coeff-En:   0.000D+00 0.000D+00 0.000D+00 0.263D+00 0.164D+00 0.615D-01
 Coeff-En:   0.390D+00 0.112D+00 0.102D-01
 Coeff:     -0.770D+01 0.928D+01 0.299D+01-0.150D+00 0.986D+00 0.152D+01
 Coeff:      0.395D+00-0.310D+00-0.212D+01-0.181D+01 0.724D+00-0.839D+00
 Coeff:     -0.292D+01 0.830D+00 0.128D+00
 Gap=     0.001 Goal=   None    Shift=    0.000
 RMSDP=7.06D-03 MaxDP=2.27D-01 DE=-2.26D-02 OVMax= 0.00D+00

 Cycle 273  Pass 1  IDiag  1:
 E= -971.837901905013     Delta-E=        0.021633486582 Rises=F Damp=F
 DIIS: error= 1.23D-02 at cycle 273 NSaved=  16.
 NSaved=16 IEnMin= 3 EnMin= -971.870753245936     IErMin= 3 ErrMin= 1.83D-03
 ErrMax= 1.23D-02 EMaxC= 1.00D-01 BMatC= 9.96D-03 BMatP= 3.38D-04
 IDIUse=2 WtCom= 0.00D+00 WtEn= 1.00D+00
 EnCoef did   100 forward-backward iterations
 Coeff-En:   0.000D+00 0.000D+00 0.102D-05 0.000D+00 0.000D+00 0.000D+00
 Coeff-En:   0.000D+00 0.000D+00 0.449D-01 0.415D+00 0.103D+00 0.557D-01
 Coeff-En:   0.260D+00 0.870D-01 0.486D-04 0.345D-01
 Coeff:      0.000D+00 0.000D+00 0.102D-05 0.000D+00 0.000D+00 0.000D+00
 Coeff:      0.000D+00 0.000D+00 0.449D-01 0.415D+00 0.103D+00 0.557D-01
 Coeff:      0.260D+00 0.870D-01 0.486D-04 0.345D-01
 Gap=     0.000 Goal=   None    Shift=    0.000
 RMSDP=1.08D-02 MaxDP=4.09D-01 DE= 2.16D-02 OVMax= 0.00D+00

 Cycle 274  Pass 1  IDiag  1:
 E= -971.870442590156     Delta-E=       -0.032540685143 Rises=F Damp=F
 DIIS: error= 2.58D-03 at cycle 274 NSaved=  17.
 NSaved=17 IEnMin= 3 EnMin= -971.870753245936     IErMin= 3 ErrMin= 1.83D-03
 ErrMax= 2.58D-03 EMaxC= 1.00D-01 BMatC= 5.75D-04 BMatP= 3.38D-04
 IDIUse=3 WtCom= 9.88D-01 WtEn= 1.17D-02
 EnCoef did   100 forward-backward iterations
 Coeff-Com: -0.755D+01 0.919D+01 0.258D+01-0.216D-01 0.154D+01 0.438D+01
 Coeff-Com:  0.191D+00-0.434D+00-0.280D+01-0.177D+01-0.124D-01 0.542D+00
 Coeff-Com: -0.114D+01 0.788D-01 0.771D-01-0.613D+00-0.325D+01
 Coeff-En:   0.000D+00 0.000D+00 0.111D-05 0.000D+00 0.000D+00 0.000D+00
 Coeff-En:   0.000D+00 0.000D+00 0.140D+00 0.342D+00 0.764D-01 0.339D-01
 Coeff-En:   0.163D+00 0.644D-01 0.527D-04 0.797D-01 0.100D+00
 Coeff:     -0.746D+01 0.908D+01 0.255D+01-0.214D-01 0.153D+01 0.433D+01
 Coeff:      0.189D+00-0.429D+00-0.277D+01-0.175D+01-0.113D-01 0.536D+00
 Coeff:     -0.112D+01 0.786D-01 0.762D-01-0.605D+00-0.321D+01
 Gap=    -0.003 Goal=   None    Shift=    0.000
 RMSDP=1.08D-02 MaxDP=4.07D-01 DE=-3.25D-02 OVMax= 0.00D+00

 Cycle 275  Pass 1  IDiag  1:
 E= -971.838239296856     Delta-E=        0.032203293300 Rises=F Damp=F
 DIIS: error= 1.22D-02 at cycle 275 NSaved=  18.
 NSaved=18 IEnMin= 3 EnMin= -971.870753245936     IErMin= 3 ErrMin= 1.83D-03
 ErrMax= 1.22D-02 EMaxC= 1.00D-01 BMatC= 9.95D-03 BMatP= 3.38D-04
 IDIUse=2 WtCom= 0.00D+00 WtEn= 1.00D+00
 EnCoef did   100 forward-backward iterations
 Coeff-En:   0.000D+00 0.000D+00 0.135D-05 0.000D+00 0.313D-02 0.000D+00
 Coeff-En:   0.000D+00 0.000D+00 0.281D+00 0.254D+00 0.451D-01 0.173D-03
 Coeff-En:   0.541D-01 0.516D-01 0.644D-04 0.126D+00 0.184D+00 0.846D-03
 Coeff:      0.000D+00 0.000D+00 0.135D-05 0.000D+00 0.313D-02 0.000D+00
 Coeff:      0.000D+00 0.000D+00 0.281D+00 0.254D+00 0.451D-01 0.173D-03
 Coeff:      0.541D-01 0.516D-01 0.644D-04 0.126D+00 0.184D+00 0.846D-03
 Gap=     0.000 Goal=   None    Shift=    0.000
 RMSDP=1.09D-02 MaxDP=4.08D-01 DE= 3.22D-02 OVMax= 0.00D+00

 Cycle 276  Pass 1  IDiag  1:
 E= -971.870403626817     Delta-E=       -0.032164329961 Rises=F Damp=F
 DIIS: error= 2.62D-03 at cycle 276 NSaved=  19.
 NSaved=19 IEnMin= 3 EnMin= -971.870753245936     IErMin= 3 ErrMin= 1.83D-03
 ErrMax= 2.62D-03 EMaxC= 1.00D-01 BMatC= 5.97D-04 BMatP= 3.38D-04
 IDIUse=3 WtCom= 9.88D-01 WtEn= 1.17D-02
 EnCoef did   100 forward-backward iterations
 Coeff-Com: -0.867D+01 0.856D+01-0.222D+00 0.954D+01 0.301D+01 0.792D+01
 Coeff-Com: -0.693D+01-0.291D+01-0.333D+01 0.223D+00-0.447D+00 0.743D+00
 Coeff-Com:  0.121D+01 0.217D+00 0.134D+00-0.106D+01 0.104D+01 0.809D-01
 Coeff-Com: -0.810D+01
 Coeff-En:   0.000D+00 0.000D+00 0.147D-05 0.000D+00 0.493D-04 0.000D+00
 Coeff-En:   0.000D+00 0.000D+00 0.407D+00 0.154D+00 0.548D-01 0.188D-03
 Coeff-En:   0.224D-02 0.278D-01 0.700D-04 0.151D+00 0.189D+00 0.458D-04
 Coeff-En:   0.139D-01
 Coeff:     -0.857D+01 0.846D+01-0.220D+00 0.943D+01 0.297D+01 0.783D+01
 Coeff:     -0.685D+01-0.288D+01-0.329D+01 0.222D+00-0.441D+00 0.735D+00
 Coeff:      0.119D+01 0.214D+00 0.132D+00-0.105D+01 0.103D+01 0.800D-01
 Coeff:     -0.800D+01
 Gap=    -0.003 Goal=   None    Shift=    0.000
 RMSDP=1.08D-02 MaxDP=4.02D-01 DE=-3.22D-02 OVMax= 0.00D+00

 Cycle 277  Pass 1  IDiag  1:
 E= -971.839323156631     Delta-E=        0.031080470187 Rises=F Damp=F
 DIIS: error= 1.21D-02 at cycle 277 NSaved=  20.
 NSaved=20 IEnMin= 3 EnMin= -971.870753245936     IErMin= 3 ErrMin= 1.83D-03
 ErrMax= 1.21D-02 EMaxC= 1.00D-01 BMatC= 9.93D-03 BMatP= 3.38D-04
 IDIUse=2 WtCom= 0.00D+00 WtEn= 1.00D+00
 EnCoef did   100 forward-backward iterations
 Rare condition: small coef for last iteration:  0.262D-14
 Matrix for removal 14 Erem= -971.836899386341     Crem= 0.000D+00
 Coeff-En:   0.000D+00 0.000D+00 0.124D-02 0.000D+00 0.000D+00 0.000D+00
 Coeff-En:   0.000D+00 0.000D+00 0.000D+00 0.951D-02 0.228D-02 0.000D+00
 Coeff-En:   0.377D-01 0.000D+00 0.191D-01 0.530D-03 0.955D-02 0.000D+00
 Coeff-En:   0.745D+00 0.175D+00
 Coeff:      0.000D+00 0.000D+00 0.124D-02 0.000D+00 0.000D+00 0.000D+00
 Coeff:      0.000D+00 0.000D+00 0.000D+00 0.951D-02 0.228D-02 0.000D+00
 Coeff:      0.377D-01 0.000D+00 0.191D-01 0.530D-03 0.955D-02 0.000D+00
 Coeff:      0.745D+00 0.175D+00
 Gap=     0.000 Goal=   None    Shift=    0.000
 RMSDP=8.22D-03 MaxDP=2.79D-01 DE= 3.11D-02 OVMax= 0.00D+00

 Cycle 278  Pass 1  IDiag  1:
 E= -971.867778418446     Delta-E=       -0.028455261816 Rises=F Damp=F
 DIIS: error= 2.02D-03 at cycle 278 NSaved=  20.
 NSaved=20 IEnMin= 3 EnMin= -971.870753245936     IErMin= 3 ErrMin= 1.83D-03
 ErrMax= 2.02D-03 EMaxC= 1.00D-01 BMatC= 7.28D-04 BMatP= 3.38D-04
 IDIUse=3 WtCom= 9.88D-01 WtEn= 1.17D-02
 Large coefficients: NSaved= 20 BigCof=   16.95 CofMax=   10.00 Det=-1.06D-08
 Inversion failed.  Reducing to 19 matrices.
 Large coefficients: NSaved= 19 BigCof=   12.00 CofMax=   10.00 Det=-1.53D-08
 Inversion failed.  Reducing to 18 matrices.
 EnCoef did   100 forward-backward iterations
 Coeff-Com: -0.788D+01 0.599D+01-0.385D+00 0.818D+01 0.458D+01 0.874D+01
 Coeff-Com: -0.643D+01-0.324D+01-0.220D+01-0.902D+00-0.279D+00-0.154D+01
 Coeff-Com: -0.372D+00 0.576D+00-0.231D+00-0.468D+01 0.323D+00 0.739D+00
 Coeff-En:   0.000D+00 0.000D+00 0.203D-03 0.000D+00 0.000D+00 0.000D+00
 Coeff-En:   0.000D+00 0.000D+00 0.000D+00 0.767D-01 0.961D-01 0.657D-03
 Coeff-En:   0.239D-04 0.573D-03 0.216D-01 0.613D+00 0.154D+00 0.366D-01
 Coeff:     -0.779D+01 0.592D+01-0.381D+00 0.809D+01 0.453D+01 0.864D+01
 Coeff:     -0.635D+01-0.320D+01-0.217D+01-0.890D+00-0.275D+00-0.152D+01
 Coeff:     -0.368D+00 0.569D+00-0.228D+00-0.462D+01 0.321D+00 0.731D+00
 Gap=     0.000 Goal=   None    Shift=    0.000
 RMSDP=8.08D-03 MaxDP=2.79D-01 DE=-2.85D-02 OVMax= 0.00D+00

 Cycle 279  Pass 1  IDiag  1:
 E= -971.840504416497     Delta-E=        0.027274001950 Rises=F Damp=F
 DIIS: error= 1.20D-02 at cycle 279 NSaved=  19.
 NSaved=19 IEnMin= 3 EnMin= -971.870753245936     IErMin= 3 ErrMin= 1.83D-03
 ErrMax= 1.20D-02 EMaxC= 1.00D-01 BMatC= 9.59D-03 BMatP= 3.38D-04
 IDIUse=2 WtCom= 0.00D+00 WtEn= 1.00D+00
 EnCoef did   100 forward-backward iterations
 Coeff-En:   0.000D+00 0.000D+00 0.279D-03 0.000D+00 0.000D+00 0.000D+00
 Coeff-En:   0.000D+00 0.000D+00 0.259D-01 0.216D+00 0.974D-02 0.123D-01
 Coeff-En:   0.328D-04 0.735D-02 0.653D-04 0.540D+00 0.975D-01 0.315D-02
 Coeff-En:   0.879D-01
 Coeff:      0.000D+00 0.000D+00 0.279D-03 0.000D+00 0.000D+00 0.000D+00
 Coeff:      0.000D+00 0.000D+00 0.259D-01 0.216D+00 0.974D-02 0.123D-01
 Coeff:      0.328D-04 0.735D-02 0.653D-04 0.540D+00 0.975D-01 0.315D-02
 Coeff:      0.879D-01
 Gap=     0.000 Goal=   None    Shift=    0.000
 RMSDP=1.05D-02 MaxDP=3.97D-01 DE= 2.73D-02 OVMax= 0.00D+00

 Cycle 280  Pass 1  IDiag  1:
 Restarting incremental Fock formation.
 E= -971.870525104830     Delta-E=       -0.030020688333 Rises=F Damp=F
 DIIS: error= 2.34D-03 at cycle 280 NSaved=  20.
 NSaved=20 IEnMin= 3 EnMin= -971.870753245936     IErMin= 3 ErrMin= 1.83D-03
 ErrMax= 2.34D-03 EMaxC= 1.00D-01 BMatC= 4.91D-04 BMatP= 3.38D-04
 IDIUse=3 WtCom= 9.88D-01 WtEn= 1.17D-02
 Large coefficients: NSaved= 20 BigCof=   12.59 CofMax=   10.00 Det=-1.72D-08
 Inversion failed.  Reducing to 19 matrices.
 Large coefficients: NSaved= 19 BigCof=   11.10 CofMax=   10.00 Det=-2.26D-08
 Inversion failed.  Reducing to 18 matrices.
 Large coefficients: NSaved= 18 BigCof=   12.04 CofMax=   10.00 Det=-2.39D-08
 Inversion failed.  Reducing to 17 matrices.
 Large coefficients: NSaved= 17 BigCof=   10.40 CofMax=   10.00 Det=-2.41D-08
 Inversion failed.  Reducing to 16 matrices.
 Large coefficients: NSaved= 16 BigCof=   10.74 CofMax=   10.00 Det=-2.41D-08
 Inversion failed.  Reducing to 15 matrices.
 Large coefficients: NSaved= 15 BigCof=   10.25 CofMax=   10.00 Det=-2.60D-08
 Inversion failed.  Reducing to 14 matrices.
 EnCoef did   100 forward-backward iterations
 Coeff-Com: -0.521D+01 0.756D+01 0.400D+01-0.972D+00-0.279D+01-0.426D+01
 Coeff-Com:  0.333D+01 0.323D+01-0.640D+01 0.353D+00 0.134D+01-0.679D+00
 Coeff-Com:  0.463D-01 0.145D+01
 Coeff-En:   0.000D+00 0.000D+00 0.000D+00 0.354D-01 0.801D-01 0.000D+00
 Coeff-En:   0.109D-03 0.255D+00 0.000D+00 0.000D+00 0.000D+00 0.166D+00
 Coeff-En:   0.185D+00 0.279D+00
 Coeff:     -0.515D+01 0.748D+01 0.395D+01-0.960D+00-0.276D+01-0.421D+01
 Coeff:      0.329D+01 0.320D+01-0.632D+01 0.349D+00 0.132D+01-0.669D+00
 Coeff:      0.479D-01 0.144D+01
 Gap=    -0.003 Goal=   None    Shift=    0.000
 RMSDP=1.09D-02 MaxDP=4.07D-01 DE=-3.00D-02 OVMax= 0.00D+00

 >>>>>>>>>> Convergence criterion not met.
 SCF Done:  E(RO-LYP) =  -971.870525105     A.U. after  281 cycles
             Convg  =    0.1089D-01             -V/T =  2.1101
             S**2   =   0.0000
 KE= 8.754688648619D+02 PE=-6.981129888630D+03 EE= 2.750282600492D+03
 Convergence failure -- run terminated.
 Error termination via Lnk1e in /global/apps/gaussian/03.e01/l502.exe at Mon Dec 23 00:33:12 2013.
 Job cpu time:  0 days  0 hours 43 minutes 13.4 seconds.
 File lengths (MBytes):  RWF=     25 Int=      0 D2E=      0 Chk=     11 Scr=      1
