 Entering Gaussian System, Link 0=g09
 Initial command:
 /global/apps/gaussian/09.c01/l1.exe /global/work/marcof/2040940.stallo-adm.uit.no/Pd-4-6PPh2Me/Gau-51264.inp -scrdir=/global/work/marcof/2040940.stallo-adm.uit.no/Pd-4-6PPh2Me/
 Entering Link 1 = /global/apps/gaussian/09.c01/l1.exe PID=     51265.
  
 Copyright (c) 1988,1990,1992,1993,1995,1998,2003,2009,2011,
            Gaussian, Inc.  All Rights Reserved.
  
 This is part of the Gaussian(R) 09 program.  It is based on
 the Gaussian(R) 03 system (copyright 2003, Gaussian, Inc.),
 the Gaussian(R) 98 system (copyright 1998, Gaussian, Inc.),
 the Gaussian(R) 94 system (copyright 1995, Gaussian, Inc.),
 the Gaussian 92(TM) system (copyright 1992, Gaussian, Inc.),
 the Gaussian 90(TM) system (copyright 1990, Gaussian, Inc.),
 the Gaussian 88(TM) system (copyright 1988, Gaussian, Inc.),
 the Gaussian 86(TM) system (copyright 1986, Carnegie Mellon
 University), and the Gaussian 82(TM) system (copyright 1983,
 Carnegie Mellon University). Gaussian is a federally registered
 trademark of Gaussian, Inc.
  
 This software contains proprietary and confidential information,
 including trade secrets, belonging to Gaussian, Inc.
  
 This software is provided under written license and may be
 used, copied, transmitted, or stored only in accord with that
 written license.
  
 The following legend is applicable only to US Government
 contracts under FAR:
  
                    RESTRICTED RIGHTS LEGEND
  
 Use, reproduction and disclosure by the US Government is
 subject to restrictions as set forth in subparagraphs (a)
 and (c) of the Commercial Computer Software - Restricted
 Rights clause in FAR 52.227-19.
  
 Gaussian, Inc.
 340 Quinnipiac St., Bldg. 40, Wallingford CT 06492
  
  
 ---------------------------------------------------------------
 Warning -- This program may not be used in any manner that
 competes with the business of Gaussian, Inc. or will provide
 assistance to any competitor of Gaussian, Inc.  The licensee
 of this program is prohibited from giving any competitor of
 Gaussian, Inc. access to this program.  By using this program,
 the user acknowledges that Gaussian, Inc. is engaged in the
 business of creating and licensing software in the field of
 computational chemistry and represents and warrants to the
 licensee that it is not a competitor of Gaussian, Inc. and that
 it will not use this program in any manner prohibited above.
 ---------------------------------------------------------------
  

 Cite this work as:
 Gaussian 09, Revision C.01,
 M. J. Frisch, G. W. Trucks, H. B. Schlegel, G. E. Scuseria, 
 M. A. Robb, J. R. Cheeseman, G. Scalmani, V. Barone, B. Mennucci, 
 G. A. Petersson, H. Nakatsuji, M. Caricato, X. Li, H. P. Hratchian, 
 A. F. Izmaylov, J. Bloino, G. Zheng, J. L. Sonnenberg, M. Hada, 
 M. Ehara, K. Toyota, R. Fukuda, J. Hasegawa, M. Ishida, T. Nakajima, 
 Y. Honda, O. Kitao, H. Nakai, T. Vreven, J. A. Montgomery, Jr., 
 J. E. Peralta, F. Ogliaro, M. Bearpark, J. J. Heyd, E. Brothers, 
 K. N. Kudin, V. N. Staroverov, T. Keith, R. Kobayashi, J. Normand, 
 K. Raghavachari, A. Rendell, J. C. Burant, S. S. Iyengar, J. Tomasi, 
 M. Cossi, N. Rega, J. M. Millam, M. Klene, J. E. Knox, J. B. Cross, 
 V. Bakken, C. Adamo, J. Jaramillo, R. Gomperts, R. E. Stratmann, 
 O. Yazyev, A. J. Austin, R. Cammi, C. Pomelli, J. W. Ochterski, 
 R. L. Martin, K. Morokuma, V. G. Zakrzewski, G. A. Voth, 
 P. Salvador, J. J. Dannenberg, S. Dapprich, A. D. Daniels, 
 O. Farkas, J. B. Foresman, J. V. Ortiz, J. Cioslowski, 
 and D. J. Fox, Gaussian, Inc., Wallingford CT, 2010.
 
 ******************************************
 Gaussian 09:  EM64L-G09RevC.01 23-Sep-2011
                 8-Apr-2014 
 ******************************************
 %NPROCSHARED=16
 Will use up to   16 processors via shared memory.
 %LINDAWORKERS=c18-9
 SetLPE:  input flags="-v -nodelist "c18-9 " "
 SetLPE:    new flags="-v -nodelist "c18-9 "  -nodelist 'c18-9.local'"
 Will use up to    1 processors via Linda.
 %CHK=Pd-4-6PPh2Me
 %MEM=28GB
 ----------------------------------------------------------------------
 #P # HF/LANL2MB 5D 7F # NOSYM # SCF=(VSHIFT=1000,NOSYM,NOVARACC,MAXCYC
 LE=180) # SP
 ----------------------------------------------------------------------
 1/38=1/1;
 2/12=2,15=1,17=6,18=5,40=1/2;
 3/5=6,6=2,8=11,11=9,16=1,25=1,30=1/1,2,3;
 4/9=2/1;
 5/5=2,7=180,10=1000,38=1/2;
 6/7=2,8=2,9=2,10=2,28=1/1;
 99/5=1,9=1/99;
 Leave Link    1 at Tue Apr  8 18:24:09 2014, MaxMem= 3758096384 cpu:       0.9
 (Enter /global/apps/gaussian/09.c01/l101.exe)
 --------------------------------------------
 STEP 1 - 3D-BUILDER VARSET G09 - 14 FEB 2014
 --------------------------------------------
 Charge =  0 Multiplicity = 1
 Symbolic Z-Matrix:
 H                    -1.2424   -8.62     -0.6367 
 C                    -1.46     -7.6965   -0.2564 
 C                    -1.0513   -6.5399   -0.9377 
 H                    -0.5437   -6.6241   -1.8221 
 C                    -1.3413   -5.2693   -0.4057 
 H                    -1.0262   -4.466    -0.9413 
 C                    -2.0404   -5.1157    0.8187 
 C                    -2.4521   -6.3039    1.4758 
 H                    -2.9785   -6.2757    2.3448 
 C                    -2.1606   -7.5772    0.9536 
 H                    -2.4576   -8.4155    1.4581 
 P                    -2.435    -3.6196    1.4383 
 C                    -2.0046   -3.324     3.0145 
 C                    -1.0717   -2.3171    3.3698 
 H                    -0.6556   -1.7091    2.6669 
 C                    -0.7033   -2.1031    4.7132 
 H                    -0.0153   -1.3842    4.9513 
 C                    -1.2884   -2.8697    5.7339 
 H                    -1.0211   -2.7221    6.7087 
 C                    -2.2563   -3.8329    5.4108 
 H                    -2.7062   -4.3742    6.1522 
 C                    -2.6209   -4.0436    4.0692 
 H                    -3.3608   -4.7213    3.8897 
 C                    -4.0852   -3.2754    1.1703 
 H                    -4.3267   -2.2938    1.5795 
 H                    -4.2938   -3.2883    0.0997 
 H                    -4.7071   -4.0279    1.6592 
 Pd                   -1.2634   -1.9059    0.0627 
 Cl                    0.8865   -3.1258    0.6365 
 C                    -0.068    -0.0299    0.3549 
 C                     1.2733    0.1457   -0.0546 
 H                     1.8098   -0.6544   -0.3908 
 C                     1.8846    1.4129   -0.0452 
 H                     2.8478    1.5204   -0.3715 
 C                     1.1623    2.5336    0.3969 
 H                     1.597     3.4593    0.3827 
 C                    -0.1586    2.3758    0.8521 
 H                    -0.6842    3.189     1.1795 
 C                    -0.7555    1.0992    0.8471 
 H                    -1.715     0.9898    1.1783 
 C                    -2.7487   -0.7906   -1.1131 
 H                    -2.8314    0.166    -1.3667 
 H                    -3.2112   -1.1001   -0.3003 
 C                    -2.1042   -1.6524   -1.9076 
 H                    -2.0917   -2.6106   -1.6795 
 Sn                   -1.1901   -1.038    -3.6233 
 C                    -2.6657   -0.9909   -5.1684 
 H                    -2.2433   -0.5342   -6.0636 
 H                    -2.9873   -2.0064   -5.3991 
 H                    -3.5252   -0.4075   -4.8379 
 C                     0.397    -2.4135   -4.0036 
 H                     0.9724   -2.0751   -4.8643 
 H                    -0.0158   -3.4001   -4.2077 
 H                     1.0471   -2.4657   -3.1315 
 C                    -0.2571    0.8818   -3.5122 
 H                    -0.1444    1.295    -4.5167 
 H                     0.7265    0.7774   -3.0529 
 H                    -0.8692    1.5543   -2.9097 
 
 NAtoms=     58 NQM=        0 NQMF=       0 NMMI=     58 NMMIF=      0
                NMic=       0 NMicF=      0.
                    Isotopes and Nuclear Properties:
 (Nuclear quadrupole moments (NQMom) in fm**2, nuclear magnetic moments (NMagM)
  in nuclear magnetons)

  Atom         1           2           3           4           5           6           7           8           9          10
 IAtWgt=           1          12          12           1          12           1          12          12           1          12
 AtmWgt=   1.0078250  12.0000000  12.0000000   1.0078250  12.0000000   1.0078250  12.0000000  12.0000000   1.0078250  12.0000000
 NucSpn=           1           0           0           1           0           1           0           0           1           0
 AtZEff=   0.0000000   0.0000000   0.0000000   0.0000000   0.0000000   0.0000000   0.0000000   0.0000000   0.0000000   0.0000000
 NQMom=    0.0000000   0.0000000   0.0000000   0.0000000   0.0000000   0.0000000   0.0000000   0.0000000   0.0000000   0.0000000
 NMagM=    2.7928460   0.0000000   0.0000000   2.7928460   0.0000000   2.7928460   0.0000000   0.0000000   2.7928460   0.0000000

  Atom        11          12          13          14          15          16          17          18          19          20
 IAtWgt=           1          31          12          12           1          12           1          12           1          12
 AtmWgt=   1.0078250  30.9737634  12.0000000  12.0000000   1.0078250  12.0000000   1.0078250  12.0000000   1.0078250  12.0000000
 NucSpn=           1           1           0           0           1           0           1           0           1           0
 AtZEff=   0.0000000   0.0000000   0.0000000   0.0000000   0.0000000   0.0000000   0.0000000   0.0000000   0.0000000   0.0000000
 NQMom=    0.0000000   0.0000000   0.0000000   0.0000000   0.0000000   0.0000000   0.0000000   0.0000000   0.0000000   0.0000000
 NMagM=    2.7928460   1.1316000   0.0000000   0.0000000   2.7928460   0.0000000   2.7928460   0.0000000   2.7928460   0.0000000

  Atom        21          22          23          24          25          26          27          28          29          30
 IAtWgt=           1          12           1          12           1           1           1         106          35          12
 AtmWgt=   1.0078250  12.0000000   1.0078250  12.0000000   1.0078250   1.0078250   1.0078250 105.9032000  34.9688527  12.0000000
 NucSpn=           1           0           1           0           1           1           1           0           3           0
 AtZEff=   0.0000000   0.0000000   0.0000000   0.0000000   0.0000000   0.0000000   0.0000000   0.0000000   0.0000000   0.0000000
 NQMom=    0.0000000   0.0000000   0.0000000   0.0000000   0.0000000   0.0000000   0.0000000   0.0000000  -8.1650000   0.0000000
 NMagM=    2.7928460   0.0000000   2.7928460   0.0000000   2.7928460   2.7928460   2.7928460   0.0000000   0.8218740   0.0000000

  Atom        31          32          33          34          35          36          37          38          39          40
 IAtWgt=          12           1          12           1          12           1          12           1          12           1
 AtmWgt=  12.0000000   1.0078250  12.0000000   1.0078250  12.0000000   1.0078250  12.0000000   1.0078250  12.0000000   1.0078250
 NucSpn=           0           1           0           1           0           1           0           1           0           1
 AtZEff=   0.0000000   0.0000000   0.0000000   0.0000000   0.0000000   0.0000000   0.0000000   0.0000000   0.0000000   0.0000000
 NQMom=    0.0000000   0.0000000   0.0000000   0.0000000   0.0000000   0.0000000   0.0000000   0.0000000   0.0000000   0.0000000
 NMagM=    0.0000000   2.7928460   0.0000000   2.7928460   0.0000000   2.7928460   0.0000000   2.7928460   0.0000000   2.7928460

  Atom        41          42          43          44          45          46          47          48          49          50
 IAtWgt=          12           1           1          12           1         118          12           1           1           1
 AtmWgt=  12.0000000   1.0078250   1.0078250  12.0000000   1.0078250 117.9018000  12.0000000   1.0078250   1.0078250   1.0078250
 NucSpn=           0           1           1           0           1           0           0           1           1           1
 AtZEff=   0.0000000   0.0000000   0.0000000   0.0000000   0.0000000   0.0000000   0.0000000   0.0000000   0.0000000   0.0000000
 NQMom=    0.0000000   0.0000000   0.0000000   0.0000000   0.0000000   0.0000000   0.0000000   0.0000000   0.0000000   0.0000000
 NMagM=    0.0000000   2.7928460   2.7928460   0.0000000   2.7928460   0.0000000   0.0000000   2.7928460   2.7928460   2.7928460

  Atom        51          52          53          54          55          56          57          58
 IAtWgt=          12           1           1           1          12           1           1           1
 AtmWgt=  12.0000000   1.0078250   1.0078250   1.0078250  12.0000000   1.0078250   1.0078250   1.0078250
 NucSpn=           0           1           1           1           0           1           1           1
 AtZEff=   0.0000000   0.0000000   0.0000000   0.0000000   0.0000000   0.0000000   0.0000000   0.0000000
 NQMom=    0.0000000   0.0000000   0.0000000   0.0000000   0.0000000   0.0000000   0.0000000   0.0000000
 NMagM=    0.0000000   2.7928460   2.7928460   2.7928460   0.0000000   2.7928460   2.7928460   2.7928460
 Leave Link  101 at Tue Apr  8 18:24:09 2014, MaxMem= 3758096384 cpu:       0.9
 (Enter /global/apps/gaussian/09.c01/l202.exe)
 Symmetry turned off by external request.
 Stoichiometry    C24H30ClPPdSn
 Framework group  C1[X(C24H30ClPPdSn)]
 Deg. of freedom   168
 Full point group                 C1      NOp   1
                          Input orientation:                          
 ---------------------------------------------------------------------
 Center     Atomic      Atomic             Coordinates (Angstroms)
 Number     Number       Type             X           Y           Z
 ---------------------------------------------------------------------
      1          1           0       -1.242400   -8.620000   -0.636700
      2          6           0       -1.460000   -7.696500   -0.256400
      3          6           0       -1.051300   -6.539900   -0.937700
      4          1           0       -0.543700   -6.624100   -1.822100
      5          6           0       -1.341300   -5.269300   -0.405700
      6          1           0       -1.026200   -4.466000   -0.941300
      7          6           0       -2.040400   -5.115700    0.818700
      8          6           0       -2.452100   -6.303900    1.475800
      9          1           0       -2.978500   -6.275700    2.344800
     10          6           0       -2.160600   -7.577200    0.953600
     11          1           0       -2.457600   -8.415500    1.458100
     12         15           0       -2.435000   -3.619600    1.438300
     13          6           0       -2.004600   -3.324000    3.014500
     14          6           0       -1.071700   -2.317100    3.369800
     15          1           0       -0.655600   -1.709100    2.666900
     16          6           0       -0.703300   -2.103100    4.713200
     17          1           0       -0.015300   -1.384200    4.951300
     18          6           0       -1.288400   -2.869700    5.733900
     19          1           0       -1.021100   -2.722100    6.708700
     20          6           0       -2.256300   -3.832900    5.410800
     21          1           0       -2.706200   -4.374200    6.152200
     22          6           0       -2.620900   -4.043600    4.069200
     23          1           0       -3.360800   -4.721300    3.889700
     24          6           0       -4.085200   -3.275400    1.170300
     25          1           0       -4.326700   -2.293800    1.579500
     26          1           0       -4.293800   -3.288300    0.099700
     27          1           0       -4.707100   -4.027900    1.659200
     28         46           0       -1.263400   -1.905900    0.062700
     29         17           0        0.886500   -3.125800    0.636500
     30          6           0       -0.068000   -0.029900    0.354900
     31          6           0        1.273300    0.145700   -0.054600
     32          1           0        1.809800   -0.654400   -0.390800
     33          6           0        1.884600    1.412900   -0.045200
     34          1           0        2.847800    1.520400   -0.371500
     35          6           0        1.162300    2.533600    0.396900
     36          1           0        1.597000    3.459300    0.382700
     37          6           0       -0.158600    2.375800    0.852100
     38          1           0       -0.684200    3.189000    1.179500
     39          6           0       -0.755500    1.099200    0.847100
     40          1           0       -1.715000    0.989800    1.178300
     41          6           0       -2.748700   -0.790600   -1.113100
     42          1           0       -2.831400    0.166000   -1.366700
     43          1           0       -3.211200   -1.100100   -0.300300
     44          6           0       -2.104200   -1.652400   -1.907600
     45          1           0       -2.091700   -2.610600   -1.679500
     46         50           0       -1.190100   -1.038000   -3.623300
     47          6           0       -2.665700   -0.990900   -5.168400
     48          1           0       -2.243300   -0.534200   -6.063600
     49          1           0       -2.987300   -2.006400   -5.399100
     50          1           0       -3.525200   -0.407500   -4.837900
     51          6           0        0.397000   -2.413500   -4.003600
     52          1           0        0.972400   -2.075100   -4.864300
     53          1           0       -0.015800   -3.400100   -4.207700
     54          1           0        1.047100   -2.465700   -3.131500
     55          6           0       -0.257100    0.881800   -3.512200
     56          1           0       -0.144400    1.295000   -4.516700
     57          1           0        0.726500    0.777400   -3.052900
     58          1           0       -0.869200    1.554300   -2.909700
 ---------------------------------------------------------------------
 Rotational constants (GHZ):      0.1588990      0.0896098      0.0673920
 Leave Link  202 at Tue Apr  8 18:24:09 2014, MaxMem= 3758096384 cpu:       0.2
 (Enter /global/apps/gaussian/09.c01/l301.exe)
 Standard basis: LANL2MB (5D, 7F)
 Ernie: Thresh=  0.10000D-02 Tol=  0.10000D-05 Strict=F.
 Ernie:  1 primitive shells out of 270 were deleted.
 Integral buffers will be    131072 words long.
 Raffenetti 1 integral format.
 Two-electron integral symmetry is turned off.
   175 basis functions,   535 primitive gaussians,   176 cartesian basis functions
   104 alpha electrons      104 beta electrons
       nuclear repulsion energy      2594.8569430447 Hartrees.



 Warning!  P  atom   12 may be hypervalent but has no d functions.



 IExCor=    0 DFT=F Ex=HF Corr=None ExCW=0 ScaHFX=  1.000000
 ScaDFX=  1.000000  1.000000  1.000000  1.000000 ScalE2=  1.000000  1.000000
 IRadAn=      0 IRanWt=     -1 IRanGd=            0 ICorTp=0
 NAtoms=   58 NActive=   58 NUniq=   58 SFac= 1.00D+00 NAtFMM=   60 NAOKFM=F Big=F
 Leave Link  301 at Tue Apr  8 18:24:09 2014, MaxMem= 3758096384 cpu:       1.5
 (Enter /global/apps/gaussian/09.c01/l302.exe)
 NPDir=0 NMtPBC=     1 NCelOv=     1 NCel=       1 NClECP=     1 NCelD=      1
         NCelK=      1 NCelE2=     1 NClLst=     1 CellRange=     0.0.
 One-electron integrals computed using PRISM.
   1 Symmetry operations used in ECPInt.
 ECPInt:  NShTT=    4005 NPrTT=   36588 LenC2=    3646 LenP2D=   22062.
 LDataN:  DoStor=T MaxTD1= 5 Len=  102
 NBasis=   175 RedAO= T  NBF=   175
 NBsUse=   175 1.00D-06 NBFU=   175
 Leave Link  302 at Tue Apr  8 18:24:10 2014, MaxMem= 3758096384 cpu:      10.1
 (Enter /global/apps/gaussian/09.c01/l303.exe)
 DipDrv:  MaxL=1.
 Leave Link  303 at Tue Apr  8 18:24:10 2014, MaxMem= 3758096384 cpu:       1.5
 (Enter /global/apps/gaussian/09.c01/l401.exe)
 SCF N**3 symmetry information disabled.
 Harris functional with IExCor=  205 diagonalized for initial guess.
 ExpMin= 2.62D-02 ExpMax= 7.16D+01 ExpMxC= 7.16D+01 IAcc=3 IRadAn=         5 AccDes= 0.00D+00
 HarFok:  IExCor=  205 AccDes= 0.00D+00 IRadAn=         5 IDoV= 1
 ScaDFX=  1.000000  1.000000  1.000000  1.000000
 Defaulting to unpruned grid for atomic number  46.
 Defaulting to unpruned grid for atomic number  46.
 Defaulting to unpruned grid for atomic number  46.
 Defaulting to unpruned grid for atomic number  46.
 Defaulting to unpruned grid for atomic number  46.
 Defaulting to unpruned grid for atomic number  46.
 Defaulting to unpruned grid for atomic number  46.
 Defaulting to unpruned grid for atomic number  46.
 Defaulting to unpruned grid for atomic number  46.
 Defaulting to unpruned grid for atomic number  46.
 Defaulting to unpruned grid for atomic number  46.
 Defaulting to unpruned grid for atomic number  46.
 Defaulting to unpruned grid for atomic number  46.
 Defaulting to unpruned grid for atomic number  46.
 Defaulting to unpruned grid for atomic number  46.
 Defaulting to unpruned grid for atomic number  46.
 FoFCou: FMM=F IPFlag=           0 FMFlag=      100000 FMFlg1=           0
         NFxFlg=           0 DoJE=T BraDBF=F KetDBF=T FulRan=T
         Omega=  0.000000  0.000000  1.000000  0.000000  0.000000 ICntrl=     500 IOpCl=  0
         NMat0=    1 NMatS0=    1 NMatT0=    0 NMatD0=    1 NMtDS0=    0 NMtDT0=    0
         I1Cent=           4 NGrid=           0.
 Symmetry not used in FoFCou.
 Harris En= -1068.69782035142    
 Leave Link  401 at Tue Apr  8 18:24:12 2014, MaxMem= 3758096384 cpu:      22.5
 (Enter /global/apps/gaussian/09.c01/l502.exe)
 Closed shell SCF:
 Requested convergence on RMS density matrix=1.00D-08 within 180 cycles.
 Requested convergence on MAX density matrix=1.00D-06.
 Requested convergence on             energy=1.00D-06.
 Virtual orbitals will be shifted by   1.000 hartree.
 No special actions if energy rises.
 Using DIIS extrapolation, IDIIS=  1040.
 Two-electron integral symmetry not used.
 Keep R1 ints in memory in canonical form, NReq=124217556.
 IEnd=      131338 IEndB=      131338 NGot=  3758096384 MDV=  3636715255
 LenX=  3636715255 LenY=  3636683838
 Symmetry not used in FoFDir.
 MinBra= 0 MaxBra= 2 Meth= 1.
 IRaf=       0 NMat=   1 IRICut=       1 DoRegI=T DoRafI=F ISym2E= 0 JSym2E=0.

 Cycle   1  Pass 1  IDiag  1:
 E= -1055.85816013319    
 DIIS: error= 2.57D-01 at cycle   1 NSaved=   1.
 NSaved= 1 IEnMin= 1 EnMin= -1055.85816013319     IErMin= 1 ErrMin= 2.57D-01
 ErrMax= 2.57D-01 EMaxC= 1.00D-01 BMatC= 7.09D+00 BMatP= 7.09D+00
 IDIUse=3 WtCom= 0.00D+00 WtEn= 1.00D+00
 Coeff-Com:  0.100D+01
 Coeff-En:   0.100D+01
 Coeff:      0.100D+01
 Gap=     0.142 Goal=   None    Shift=    1.000
 GapD=    0.142 DampG=1.000 DampE=0.125 DampFc=0.1250 IDamp=-1.
 Damping current iteration by 1.25D-01
 RMSDP=1.77D-02 MaxDP=8.54D-01              OVMax= 0.00D+00

 Cycle   2  Pass 1  IDiag  1:
 E= -1057.83144710214     Delta-E=       -1.973286968949 Rises=F Damp=T
 DIIS: error= 2.05D-01 at cycle   2 NSaved=   2.
 NSaved= 2 IEnMin= 2 EnMin= -1057.83144710214     IErMin= 2 ErrMin= 2.05D-01
 ErrMax= 2.05D-01 EMaxC= 1.00D-01 BMatC= 4.61D+00 BMatP= 7.09D+00
 IDIUse=3 WtCom= 0.00D+00 WtEn= 1.00D+00
 Coeff-Com: -0.393D+01 0.493D+01
 Coeff-En:   0.000D+00 0.100D+01
 Coeff:      0.000D+00 0.100D+01
 Gap=     0.035 Goal=   None    Shift=    1.000
 RMSDP=1.77D-02 MaxDP=7.64D-01 DE=-1.97D+00 OVMax= 0.00D+00

 Cycle   3  Pass 1  IDiag  1:
 E= -1062.61841307823     Delta-E=       -4.786965976088 Rises=F Damp=F
 DIIS: error= 3.64D-02 at cycle   3 NSaved=   3.
 NSaved= 3 IEnMin= 3 EnMin= -1062.61841307823     IErMin= 3 ErrMin= 3.64D-02
 ErrMax= 3.64D-02 EMaxC= 1.00D-01 BMatC= 7.44D-01 BMatP= 4.61D+00
 IDIUse=3 WtCom= 6.36D-01 WtEn= 3.64D-01
 Coeff-Com: -0.266D+01 0.338D+01 0.277D+00
 Coeff-En:   0.000D+00 0.222D+00 0.778D+00
 Coeff:     -0.169D+01 0.223D+01 0.460D+00
 Gap=     0.659 Goal=   None    Shift=    1.000
 RMSDP=4.05D-03 MaxDP=2.16D-01 DE=-4.79D+00 OVMax= 0.00D+00

 Cycle   4  Pass 1  IDiag  1:
 E= -1063.39245644401     Delta-E=       -0.774043365779 Rises=F Damp=F
 DIIS: error= 2.36D-02 at cycle   4 NSaved=   4.
 NSaved= 4 IEnMin= 4 EnMin= -1063.39245644401     IErMin= 4 ErrMin= 2.36D-02
 ErrMax= 2.36D-02 EMaxC= 1.00D-01 BMatC= 2.95D-01 BMatP= 7.44D-01
 IDIUse=3 WtCom= 7.64D-01 WtEn= 2.36D-01
 EnCoef did   100 forward-backward iterations
 Coeff-Com: -0.110D+01 0.141D+01-0.925D+00 0.161D+01
 Coeff-En:   0.116D+00 0.310D-02 0.000D+00 0.881D+00
 Coeff:     -0.814D+00 0.108D+01-0.707D+00 0.144D+01
 Gap=    -0.276 Goal=   None    Shift=    1.000
 RMSDP=2.86D-03 MaxDP=1.78D-01 DE=-7.74D-01 OVMax= 0.00D+00

 Cycle   5  Pass 1  IDiag  1:
 E= -1063.74319742652     Delta-E=       -0.350740982511 Rises=F Damp=F
 DIIS: error= 1.83D-02 at cycle   5 NSaved=   5.
 NSaved= 5 IEnMin= 5 EnMin= -1063.74319742652     IErMin= 5 ErrMin= 1.83D-02
 ErrMax= 1.83D-02 EMaxC= 1.00D-01 BMatC= 1.33D-01 BMatP= 2.95D-01
 IDIUse=3 WtCom= 8.17D-01 WtEn= 1.83D-01
 EnCoef did   100 forward-backward iterations
 Coeff-Com: -0.495D+00 0.642D+00-0.233D-01-0.126D+01 0.214D+01
 Coeff-En:   0.611D-01 0.327D-02 0.000D+00 0.000D+00 0.936D+00
 Coeff:     -0.393D+00 0.525D+00-0.191D-01-0.103D+01 0.192D+01
 Gap=    -0.314 Goal=   None    Shift=    1.000
 RMSDP=2.17D-03 MaxDP=1.01D-01 DE=-3.51D-01 OVMax= 0.00D+00

 Cycle   6  Pass 1  IDiag  1:
 E= -1063.93621192747     Delta-E=       -0.193014500951 Rises=F Damp=F
 DIIS: error= 1.65D-02 at cycle   6 NSaved=   6.
 NSaved= 6 IEnMin= 6 EnMin= -1063.93621192747     IErMin= 6 ErrMin= 1.65D-02
 ErrMax= 1.65D-02 EMaxC= 1.00D-01 BMatC= 6.06D-02 BMatP= 1.33D-01
 IDIUse=3 WtCom= 8.35D-01 WtEn= 1.65D-01
 EnCoef did   100 forward-backward iterations
 Coeff-Com: -0.357D+00 0.461D+00 0.542D-02 0.264D+00-0.182D+01 0.245D+01
 Coeff-En:   0.161D-01 0.320D-03 0.000D+00 0.000D+00 0.000D+00 0.984D+00
 Coeff:     -0.296D+00 0.385D+00 0.452D-02 0.221D+00-0.152D+01 0.220D+01
 Gap=    -0.287 Goal=   None    Shift=    1.000
 RMSDP=1.62D-03 MaxDP=5.38D-02 DE=-1.93D-01 OVMax= 0.00D+00

 Cycle   7  Pass 1  IDiag  1:
 E= -1064.04758649507     Delta-E=       -0.111374567602 Rises=F Damp=F
 DIIS: error= 1.99D-02 at cycle   7 NSaved=   7.
 NSaved= 7 IEnMin= 7 EnMin= -1064.04758649507     IErMin= 6 ErrMin= 1.65D-02
 ErrMax= 1.99D-02 EMaxC= 1.00D-01 BMatC= 3.48D-02 BMatP= 6.06D-02
 IDIUse=3 WtCom= 8.35D-01 WtEn= 1.65D-01
 Coeff-Com: -0.346D+00 0.446D+00 0.390D-01 0.327D+00-0.241D+01 0.341D+01
 Coeff-Com: -0.465D+00
 Coeff-En:   0.000D+00 0.000D+00 0.000D+00 0.000D+00 0.000D+00 0.000D+00
 Coeff-En:   0.100D+01
 Coeff:     -0.289D+00 0.373D+00 0.326D-01 0.273D+00-0.202D+01 0.285D+01
 Coeff:     -0.224D+00
 Gap=    -0.252 Goal=   None    Shift=    1.000
 RMSDP=1.33D-03 MaxDP=3.47D-02 DE=-1.11D-01 OVMax= 0.00D+00

 Cycle   8  Pass 1  IDiag  1:
 E= -1064.13312307166     Delta-E=       -0.085536576592 Rises=F Damp=F
 DIIS: error= 2.40D-02 at cycle   8 NSaved=   8.
 NSaved= 8 IEnMin= 8 EnMin= -1064.13312307166     IErMin= 6 ErrMin= 1.65D-02
 ErrMax= 2.40D-02 EMaxC= 1.00D-01 BMatC= 2.68D-02 BMatP= 3.48D-02
 IDIUse=3 WtCom= 8.35D-01 WtEn= 1.65D-01
 Coeff-Com: -0.342D+00 0.439D+00 0.275D+00-0.512D+00-0.261D+01 0.912D+01
 Coeff-Com: -0.970D+01 0.434D+01
 Coeff-En:   0.000D+00 0.000D+00 0.000D+00 0.000D+00 0.000D+00 0.000D+00
 Coeff-En:   0.000D+00 0.100D+01
 Coeff:     -0.286D+00 0.366D+00 0.230D+00-0.428D+00-0.218D+01 0.761D+01
 Coeff:     -0.811D+01 0.379D+01
 Gap=    -0.202 Goal=   None    Shift=    1.000
 RMSDP=1.32D-03 MaxDP=4.47D-02 DE=-8.55D-02 OVMax= 0.00D+00

 Cycle   9  Pass 1  IDiag  1:
 E= -1064.22217646699     Delta-E=       -0.089053395327 Rises=F Damp=F
 DIIS: error= 2.74D-02 at cycle   9 NSaved=   9.
 NSaved= 9 IEnMin= 9 EnMin= -1064.22217646699     IErMin= 6 ErrMin= 1.65D-02
 ErrMax= 2.74D-02 EMaxC= 1.00D-01 BMatC= 2.78D-02 BMatP= 2.68D-02
 IDIUse=3 WtCom= 8.35D-01 WtEn= 1.65D-01
 Coeff-Com: -0.342D+00 0.438D+00 0.276D+00-0.513D+00-0.262D+01 0.909D+01
 Coeff-Com: -0.956D+01 0.413D+01 0.970D-01
 Coeff-En:   0.000D+00 0.000D+00 0.000D+00 0.000D+00 0.000D+00 0.000D+00
 Coeff-En:   0.000D+00 0.000D+00 0.100D+01
 Coeff:     -0.285D+00 0.366D+00 0.231D+00-0.429D+00-0.219D+01 0.760D+01
 Coeff:     -0.798D+01 0.345D+01 0.246D+00
 Gap=    -0.132 Goal=   None    Shift=    1.000
 RMSDP=1.39D-03 MaxDP=5.41D-02 DE=-8.91D-02 OVMax= 0.00D+00

 Cycle  10  Pass 1  IDiag  1:
 E= -1064.31856455311     Delta-E=       -0.096388086118 Rises=F Damp=F
 DIIS: error= 2.75D-02 at cycle  10 NSaved=  10.
 NSaved=10 IEnMin=10 EnMin= -1064.31856455311     IErMin= 6 ErrMin= 1.65D-02
 ErrMax= 2.75D-02 EMaxC= 1.00D-01 BMatC= 2.84D-02 BMatP= 2.68D-02
 IDIUse=3 WtCom= 8.35D-01 WtEn= 1.65D-01
 Large coefficients: NSaved= 10 BigCof=   10.80 CofMax=   10.00 Det=-6.03D-06
 Inversion failed.  Reducing to  9 matrices.
 Large coefficients: NSaved=  9 BigCof=   11.82 CofMax=   10.00 Det=-6.12D-06
 Inversion failed.  Reducing to  8 matrices.
 Large coefficients: NSaved=  8 BigCof=   11.60 CofMax=   10.00 Det=-6.08D-06
 Inversion failed.  Reducing to  7 matrices.
 Large coefficients: NSaved=  7 BigCof=   16.51 CofMax=   10.00 Det=-6.36D-06
 Inversion failed.  Reducing to  6 matrices.
 Large coefficients: NSaved=  6 BigCof=   15.33 CofMax=   10.00 Det=-6.43D-06
 Inversion failed.  Reducing to  5 matrices.
 Large coefficients: NSaved=  5 BigCof=   10.83 CofMax=   10.00 Det=-9.55D-06
 Inversion failed.  Reducing to  4 matrices.
 Large coefficients: NSaved=  4 BigCof=   10.29 CofMax=   10.00 Det=-3.41D-05
 Inversion failed.  Reducing to  3 matrices.
 Large coefficients: NSaved=  3 BigCof=   10.01 CofMax=   10.00 Det=-1.33D-04
 Inversion failed.  Reducing to  2 matrices.
 Coeff-Com:  0.615D+00 0.385D+00
 Coeff-En:   0.000D+00 0.100D+01
 Coeff:      0.514D+00 0.486D+00
 Gap=    -0.023 Goal=   None    Shift=    1.000
 RMSDP=1.48D-03 MaxDP=6.79D-02 DE=-9.64D-02 OVMax= 0.00D+00

 Cycle  11  Pass 1  IDiag  1:
 E= -1064.41541875702     Delta-E=       -0.096854203913 Rises=F Damp=F
 DIIS: error= 2.41D-02 at cycle  11 NSaved=   3.
 NSaved= 3 IEnMin= 3 EnMin= -1064.41541875702     IErMin= 3 ErrMin= 2.41D-02
 ErrMax= 2.41D-02 EMaxC= 1.00D-01 BMatC= 2.72D-02 BMatP= 2.78D-02
 IDIUse=3 WtCom= 8.35D-01 WtEn= 1.65D-01
 Coeff-Com:  0.473D+01-0.795D+01 0.422D+01
 Coeff-En:   0.000D+00 0.000D+00 0.100D+01
 Coeff:      0.395D+01-0.664D+01 0.369D+01
 Gap=     0.048 Goal=   None    Shift=    1.000
 RMSDP=1.34D-03 MaxDP=5.28D-02 DE=-9.69D-02 OVMax= 0.00D+00

 Cycle  12  Pass 1  IDiag  1:
 E= -1064.49491877699     Delta-E=       -0.079500019968 Rises=F Damp=F
 DIIS: error= 2.03D-02 at cycle  12 NSaved=   4.
 NSaved= 4 IEnMin= 4 EnMin= -1064.49491877699     IErMin= 4 ErrMin= 2.03D-02
 ErrMax= 2.03D-02 EMaxC= 1.00D-01 BMatC= 2.67D-02 BMatP= 2.72D-02
 IDIUse=3 WtCom= 8.35D-01 WtEn= 1.65D-01
 Coeff-Com:  0.495D+01-0.648D+01-0.100D+01 0.353D+01
 Coeff-En:   0.000D+00 0.000D+00 0.000D+00 0.100D+01
 Coeff:      0.413D+01-0.541D+01-0.837D+00 0.311D+01
 Gap=     0.117 Goal=   None    Shift=    1.000
 RMSDP=1.34D-03 MaxDP=4.41D-02 DE=-7.95D-02 OVMax= 0.00D+00

 Cycle  13  Pass 1  IDiag  1:
 E= -1064.56890896545     Delta-E=       -0.073990188467 Rises=F Damp=F
 DIIS: error= 1.71D-02 at cycle  13 NSaved=   5.
 NSaved= 5 IEnMin= 5 EnMin= -1064.56890896545     IErMin= 5 ErrMin= 1.71D-02
 ErrMax= 1.71D-02 EMaxC= 1.00D-01 BMatC= 2.17D-02 BMatP= 2.67D-02
 IDIUse=3 WtCom= 8.35D-01 WtEn= 1.65D-01
 Coeff-Com:  0.259D+01-0.249D+01-0.155D+01-0.774D+00 0.322D+01
 Coeff-En:   0.000D+00 0.000D+00 0.000D+00 0.000D+00 0.100D+01
 Coeff:      0.216D+01-0.208D+01-0.130D+01-0.646D+00 0.286D+01
 Gap=     0.203 Goal=   None    Shift=    1.000
 RMSDP=1.38D-03 MaxDP=2.71D-02 DE=-7.40D-02 OVMax= 0.00D+00

 Cycle  14  Pass 1  IDiag  1:
 E= -1064.63504439489     Delta-E=       -0.066135429433 Rises=F Damp=F
 DIIS: error= 1.48D-02 at cycle  14 NSaved=   6.
 NSaved= 6 IEnMin= 6 EnMin= -1064.63504439489     IErMin= 6 ErrMin= 1.48D-02
 ErrMax= 1.48D-02 EMaxC= 1.00D-01 BMatC= 1.30D-02 BMatP= 2.17D-02
 IDIUse=3 WtCom= 8.52D-01 WtEn= 1.48D-01
 Coeff-Com:  0.271D+01-0.370D+01-0.964D+00 0.280D+01-0.195D+01 0.211D+01
 Coeff-En:   0.000D+00 0.000D+00 0.000D+00 0.000D+00 0.000D+00 0.100D+01
 Coeff:      0.231D+01-0.316D+01-0.822D+00 0.239D+01-0.167D+01 0.195D+01
 Gap=     0.250 Goal=   None    Shift=    1.000
 RMSDP=1.03D-03 MaxDP=1.54D-02 DE=-6.61D-02 OVMax= 0.00D+00

 Cycle  15  Pass 1  IDiag  1:
 E= -1064.67562691594     Delta-E=       -0.040582521054 Rises=F Damp=F
 DIIS: error= 1.22D-02 at cycle  15 NSaved=   7.
 NSaved= 7 IEnMin= 7 EnMin= -1064.67562691594     IErMin= 7 ErrMin= 1.22D-02
 ErrMax= 1.22D-02 EMaxC= 1.00D-01 BMatC= 8.02D-03 BMatP= 1.30D-02
 IDIUse=3 WtCom= 8.78D-01 WtEn= 1.22D-01
 Coeff-Com:  0.138D+01-0.258D+01-0.132D+00 0.422D+01-0.224D+01-0.561D+01
 Coeff-Com:  0.596D+01
 Coeff-En:   0.000D+00 0.000D+00 0.000D+00 0.000D+00 0.000D+00 0.000D+00
 Coeff-En:   0.100D+01
 Coeff:      0.121D+01-0.227D+01-0.116D+00 0.371D+01-0.197D+01-0.493D+01
 Coeff:      0.536D+01
 Gap=     0.282 Goal=   None    Shift=    1.000
 RMSDP=8.91D-04 MaxDP=1.37D-02 DE=-4.06D-02 OVMax= 0.00D+00

 Cycle  16  Pass 1  IDiag  1:
 E= -1064.70321785210     Delta-E=       -0.027590936160 Rises=F Damp=F
 DIIS: error= 9.67D-03 at cycle  16 NSaved=   8.
 NSaved= 8 IEnMin= 8 EnMin= -1064.70321785210     IErMin= 8 ErrMin= 9.67D-03
 ErrMax= 9.67D-03 EMaxC= 1.00D-01 BMatC= 4.52D-03 BMatP= 8.02D-03
 IDIUse=3 WtCom= 9.03D-01 WtEn= 9.67D-02
 Coeff-Com:  0.619D+00-0.906D+00-0.301D+00 0.738D+00 0.179D+01-0.421D+01
 Coeff-Com:  0.163D+00 0.311D+01
 Coeff-En:   0.000D+00 0.000D+00 0.000D+00 0.000D+00 0.000D+00 0.000D+00
 Coeff-En:   0.000D+00 0.100D+01
 Coeff:      0.559D+00-0.818D+00-0.272D+00 0.667D+00 0.161D+01-0.380D+01
 Coeff:      0.148D+00 0.291D+01
 Gap=     0.301 Goal=   None    Shift=    1.000
 RMSDP=6.83D-04 MaxDP=1.17D-02 DE=-2.76D-02 OVMax= 0.00D+00

 Cycle  17  Pass 1  IDiag  1:
 E= -1064.71950941631     Delta-E=       -0.016291564206 Rises=F Damp=F
 DIIS: error= 7.40D-03 at cycle  17 NSaved=   9.
 NSaved= 9 IEnMin= 9 EnMin= -1064.71950941631     IErMin= 9 ErrMin= 7.40D-03
 ErrMax= 7.40D-03 EMaxC= 1.00D-01 BMatC= 2.53D-03 BMatP= 4.52D-03
 IDIUse=3 WtCom= 9.26D-01 WtEn= 7.40D-02
 Coeff-Com:  0.763D-01 0.171D+00-0.375D+00-0.109D+01 0.233D+01-0.972D+00
 Coeff-Com:  0.484D-03-0.332D+01 0.418D+01
 Coeff-En:   0.000D+00 0.000D+00 0.000D+00 0.000D+00 0.000D+00 0.000D+00
 Coeff-En:   0.000D+00 0.000D+00 0.100D+01
 Coeff:      0.706D-01 0.159D+00-0.348D+00-0.101D+01 0.216D+01-0.900D+00
 Coeff:      0.448D-03-0.307D+01 0.394D+01
 Gap=     0.317 Goal=   None    Shift=    1.000
 RMSDP=5.36D-04 MaxDP=9.47D-03 DE=-1.63D-02 OVMax= 0.00D+00

 Cycle  18  Pass 1  IDiag  1:
 E= -1064.72884597304     Delta-E=       -0.009336556731 Rises=F Damp=F
 DIIS: error= 5.54D-03 at cycle  18 NSaved=  10.
 NSaved=10 IEnMin=10 EnMin= -1064.72884597304     IErMin=10 ErrMin= 5.54D-03
 ErrMax= 5.54D-03 EMaxC= 1.00D-01 BMatC= 1.46D-03 BMatP= 2.53D-03
 IDIUse=3 WtCom= 9.45D-01 WtEn= 5.54D-02
 Coeff-Com:  0.308D+00-0.418D+00-0.247D+00 0.222D+00 0.792D+00-0.142D+01
 Coeff-Com:  0.215D+01-0.208D+01-0.190D+01 0.359D+01
 Coeff-En:   0.000D+00 0.000D+00 0.000D+00 0.000D+00 0.000D+00 0.000D+00
 Coeff-En:   0.000D+00 0.000D+00 0.000D+00 0.100D+01
 Coeff:      0.291D+00-0.395D+00-0.234D+00 0.209D+00 0.748D+00-0.135D+01
 Coeff:      0.203D+01-0.196D+01-0.179D+01 0.345D+01
 Gap=     0.318 Goal=   None    Shift=    1.000
 RMSDP=3.62D-04 MaxDP=6.87D-03 DE=-9.34D-03 OVMax= 0.00D+00

 Cycle  19  Pass 1  IDiag  1:
 E= -1064.73384112918     Delta-E=       -0.004995156146 Rises=F Damp=F
 DIIS: error= 4.11D-03 at cycle  19 NSaved=  11.
 NSaved=11 IEnMin=11 EnMin= -1064.73384112918     IErMin=11 ErrMin= 4.11D-03
 ErrMax= 4.11D-03 EMaxC= 1.00D-01 BMatC= 8.32D-04 BMatP= 1.46D-03
 IDIUse=3 WtCom= 9.59D-01 WtEn= 4.11D-02
 Coeff-Com:  0.689D-01-0.157D+00 0.474D-01 0.364D-01-0.216D+00 0.116D+00
 Coeff-Com:  0.398D+00 0.570D+00-0.159D+01-0.230D+01 0.403D+01
 Coeff-En:   0.000D+00 0.000D+00 0.000D+00 0.000D+00 0.000D+00 0.000D+00
 Coeff-En:   0.000D+00 0.000D+00 0.000D+00 0.000D+00 0.100D+01
 Coeff:      0.660D-01-0.151D+00 0.454D-01 0.349D-01-0.207D+00 0.111D+00
 Coeff:      0.381D+00 0.546D+00-0.152D+01-0.220D+01 0.390D+01
 Gap=     0.324 Goal=   None    Shift=    1.000
 RMSDP=3.01D-04 MaxDP=5.61D-03 DE=-5.00D-03 OVMax= 0.00D+00

 Cycle  20  Pass 1  IDiag  1:
 E= -1064.73680526589     Delta-E=       -0.002964136708 Rises=F Damp=F
 DIIS: error= 3.01D-03 at cycle  20 NSaved=  12.
 NSaved=12 IEnMin=12 EnMin= -1064.73680526589     IErMin=12 ErrMin= 3.01D-03
 ErrMax= 3.01D-03 EMaxC= 1.00D-01 BMatC= 4.98D-04 BMatP= 8.32D-04
 IDIUse=3 WtCom= 9.70D-01 WtEn= 3.01D-02
 Coeff-Com: -0.116D-01 0.172D-01 0.267D-01-0.223D+00 0.182D+00 0.260D+00
 Coeff-Com: -0.974D+00 0.102D+01 0.159D+01-0.405D+01-0.166D+00 0.333D+01
 Coeff-En:   0.000D+00 0.000D+00 0.000D+00 0.000D+00 0.000D+00 0.000D+00
 Coeff-En:   0.000D+00 0.000D+00 0.000D+00 0.000D+00 0.000D+00 0.100D+01
 Coeff:     -0.112D-01 0.167D-01 0.259D-01-0.216D+00 0.176D+00 0.253D+00
 Coeff:     -0.945D+00 0.993D+00 0.154D+01-0.393D+01-0.161D+00 0.326D+01
 Gap=     0.326 Goal=   None    Shift=    1.000
 RMSDP=2.29D-04 MaxDP=4.95D-03 DE=-2.96D-03 OVMax= 0.00D+00

 Cycle  21  Pass 1  IDiag  1:
 E= -1064.73850144501     Delta-E=       -0.001696179115 Rises=F Damp=F
 DIIS: error= 2.17D-03 at cycle  21 NSaved=  13.
 NSaved=13 IEnMin=13 EnMin= -1064.73850144501     IErMin=13 ErrMin= 2.17D-03
 ErrMax= 2.17D-03 EMaxC= 1.00D-01 BMatC= 2.98D-04 BMatP= 4.98D-04
 IDIUse=3 WtCom= 9.78D-01 WtEn= 2.17D-02
 Coeff-Com: -0.304D-01 0.117D+00-0.155D+00-0.105D+00 0.172D+00 0.217D+00
 Coeff-Com: -0.139D+00-0.458D+00 0.680D+00-0.125D+00 0.147D+01-0.673D+01
 Coeff-Com:  0.609D+01
 Coeff-En:   0.000D+00 0.000D+00 0.000D+00 0.000D+00 0.000D+00 0.000D+00
 Coeff-En:   0.000D+00 0.000D+00 0.000D+00 0.000D+00 0.000D+00 0.000D+00
 Coeff-En:   0.100D+01
 Coeff:     -0.298D-01 0.115D+00-0.151D+00-0.102D+00 0.168D+00 0.212D+00
 Coeff:     -0.136D+00-0.448D+00 0.665D+00-0.122D+00 0.144D+01-0.659D+01
 Coeff:      0.598D+01
 Gap=     0.325 Goal=   None    Shift=    1.000
 RMSDP=1.84D-04 MaxDP=4.83D-03 DE=-1.70D-03 OVMax= 0.00D+00

 Cycle  22  Pass 1  IDiag  1:
 E= -1064.73950236092     Delta-E=       -0.001000915918 Rises=F Damp=F
 DIIS: error= 1.57D-03 at cycle  22 NSaved=  14.
 NSaved=14 IEnMin=14 EnMin= -1064.73950236092     IErMin=14 ErrMin= 1.57D-03
 ErrMax= 1.57D-03 EMaxC= 1.00D-01 BMatC= 1.71D-04 BMatP= 2.98D-04
 IDIUse=3 WtCom= 9.84D-01 WtEn= 1.57D-02
 Coeff-Com: -0.555D-02 0.569D-01-0.170D+00 0.145D+00-0.207D+00 0.241D+00
 Coeff-Com:  0.477D+00-0.700D+00-0.858D+00 0.113D+01 0.284D+01-0.613D+01
 Coeff-Com:  0.144D+01 0.275D+01
 Coeff-En:   0.000D+00 0.000D+00 0.000D+00 0.000D+00 0.000D+00 0.000D+00
 Coeff-En:   0.000D+00 0.000D+00 0.000D+00 0.000D+00 0.000D+00 0.000D+00
 Coeff-En:   0.000D+00 0.100D+01
 Coeff:     -0.546D-02 0.560D-01-0.167D+00 0.143D+00-0.204D+00 0.238D+00
 Coeff:      0.470D+00-0.689D+00-0.845D+00 0.111D+01 0.279D+01-0.603D+01
 Coeff:      0.141D+01 0.272D+01
 Gap=     0.326 Goal=   None    Shift=    1.000
 RMSDP=1.42D-04 MaxDP=3.88D-03 DE=-1.00D-03 OVMax= 0.00D+00

 Cycle  23  Pass 1  IDiag  1:
 E= -1064.74007253162     Delta-E=       -0.000570170695 Rises=F Damp=F
 DIIS: error= 1.14D-03 at cycle  23 NSaved=  15.
 NSaved=15 IEnMin=15 EnMin= -1064.74007253162     IErMin=15 ErrMin= 1.14D-03
 ErrMax= 1.14D-03 EMaxC= 1.00D-01 BMatC= 1.02D-04 BMatP= 1.71D-04
 IDIUse=3 WtCom= 9.89D-01 WtEn= 1.14D-02
 Coeff-Com: -0.828D-02 0.183D-01-0.193D-01 0.631D-02-0.137D-01 0.105D+00
 Coeff-Com: -0.297D+00 0.239D+00 0.548D+00-0.122D+01 0.133D+00 0.162D+01
 Coeff-Com:  0.431D+00-0.690D+01 0.636D+01
 Coeff-En:   0.000D+00 0.000D+00 0.000D+00 0.000D+00 0.000D+00 0.000D+00
 Coeff-En:   0.000D+00 0.000D+00 0.000D+00 0.000D+00 0.000D+00 0.000D+00
 Coeff-En:   0.000D+00 0.000D+00 0.100D+01
 Coeff:     -0.819D-02 0.181D-01-0.191D-01 0.624D-02-0.136D-01 0.104D+00
 Coeff:     -0.294D+00 0.236D+00 0.541D+00-0.121D+01 0.131D+00 0.161D+01
 Coeff:      0.426D+00-0.683D+01 0.630D+01
 Gap=     0.325 Goal=   None    Shift=    1.000
 RMSDP=1.21D-04 MaxDP=3.54D-03 DE=-5.70D-04 OVMax= 0.00D+00

 Cycle  24  Pass 1  IDiag  1:
 E= -1064.74042844038     Delta-E=       -0.000355908759 Rises=F Damp=F
 DIIS: error= 9.33D-04 at cycle  24 NSaved=  16.
 NSaved=16 IEnMin=16 EnMin= -1064.74042844038     IErMin=16 ErrMin= 9.33D-04
 ErrMax= 9.33D-04 EMaxC= 1.00D-01 BMatC= 5.67D-05 BMatP= 1.02D-04
 IDIUse=3 WtCom= 9.91D-01 WtEn= 9.33D-03
 Coeff-Com: -0.416D-02 0.385D-02 0.199D-01-0.625D-01 0.709D-01 0.483D-01
 Coeff-Com: -0.323D+00 0.130D+00 0.999D+00-0.122D+01-0.752D+00 0.136D+01
 Coeff-Com:  0.202D+01-0.504D+01 0.107D+01 0.268D+01
 Coeff-En:   0.000D+00 0.000D+00 0.000D+00 0.000D+00 0.000D+00 0.000D+00
 Coeff-En:   0.000D+00 0.000D+00 0.000D+00 0.000D+00 0.000D+00 0.000D+00
 Coeff-En:   0.000D+00 0.000D+00 0.000D+00 0.100D+01
 Coeff:     -0.412D-02 0.382D-02 0.197D-01-0.619D-01 0.702D-01 0.479D-01
 Coeff:     -0.320D+00 0.129D+00 0.990D+00-0.121D+01-0.745D+00 0.135D+01
 Coeff:      0.200D+01-0.499D+01 0.106D+01 0.266D+01
 Gap=     0.325 Goal=   None    Shift=    1.000
 RMSDP=9.05D-05 MaxDP=2.50D-03 DE=-3.56D-04 OVMax= 0.00D+00

 Cycle  25  Pass 1  IDiag  1:
 E= -1064.74062782656     Delta-E=       -0.000199386179 Rises=F Damp=F
 DIIS: error= 7.61D-04 at cycle  25 NSaved=  17.
 NSaved=17 IEnMin=17 EnMin= -1064.74062782656     IErMin=17 ErrMin= 7.61D-04
 ErrMax= 7.61D-04 EMaxC= 1.00D-01 BMatC= 3.23D-05 BMatP= 5.67D-05
 IDIUse=3 WtCom= 9.92D-01 WtEn= 7.61D-03
 Coeff-Com:  0.410D-02 0.352D-02-0.111D-01-0.167D-01 0.213D-01-0.108D-01
 Coeff-Com:  0.133D+00-0.290D+00 0.106D+00 0.470D+00-0.825D-01-0.146D+01
 Coeff-Com:  0.661D+00 0.238D+01-0.104D+01-0.600D+01 0.613D+01
 Coeff-En:   0.000D+00 0.000D+00 0.000D+00 0.000D+00 0.000D+00 0.000D+00
 Coeff-En:   0.000D+00 0.000D+00 0.000D+00 0.000D+00 0.000D+00 0.000D+00
 Coeff-En:   0.000D+00 0.000D+00 0.000D+00 0.000D+00 0.100D+01
 Coeff:      0.406D-02 0.349D-02-0.110D-01-0.166D-01 0.211D-01-0.107D-01
 Coeff:      0.132D+00-0.288D+00 0.105D+00 0.466D+00-0.819D-01-0.145D+01
 Coeff:      0.656D+00 0.236D+01-0.103D+01-0.596D+01 0.609D+01
 Gap=     0.324 Goal=   None    Shift=    1.000
 RMSDP=7.64D-05 MaxDP=2.11D-03 DE=-1.99D-04 OVMax= 0.00D+00

 Cycle  26  Pass 1  IDiag  1:
 E= -1064.74074900160     Delta-E=       -0.000121175042 Rises=F Damp=F
 DIIS: error= 6.12D-04 at cycle  26 NSaved=  18.
 NSaved=18 IEnMin=18 EnMin= -1064.74074900160     IErMin=18 ErrMin= 6.12D-04
 ErrMax= 6.12D-04 EMaxC= 1.00D-01 BMatC= 1.86D-05 BMatP= 3.23D-05
 IDIUse=3 WtCom= 9.94D-01 WtEn= 6.12D-03
 Coeff-Com:  0.103D-01-0.813D-02-0.265D-01 0.571D-01-0.655D-01-0.728D-02
 Coeff-Com:  0.216D+00-0.252D+00-0.205D+00 0.485D+00 0.342D+00-0.110D+01
 Coeff-Com: -0.255D+00 0.190D+01 0.803D+00-0.583D+01 0.300D+01 0.194D+01
 Coeff-En:   0.000D+00 0.000D+00 0.000D+00 0.000D+00 0.000D+00 0.000D+00
 Coeff-En:   0.000D+00 0.000D+00 0.000D+00 0.000D+00 0.000D+00 0.000D+00
 Coeff-En:   0.000D+00 0.000D+00 0.000D+00 0.000D+00 0.000D+00 0.100D+01
 Coeff:      0.103D-01-0.808D-02-0.263D-01 0.567D-01-0.651D-01-0.724D-02
 Coeff:      0.215D+00-0.250D+00-0.204D+00 0.482D+00 0.340D+00-0.110D+01
 Coeff:     -0.253D+00 0.189D+01 0.798D+00-0.579D+01 0.298D+01 0.193D+01
 Gap=     0.325 Goal=   None    Shift=    1.000
 RMSDP=5.70D-05 MaxDP=1.45D-03 DE=-1.21D-04 OVMax= 0.00D+00

 Cycle  27  Pass 1  IDiag  1:
 E= -1064.74081808785     Delta-E=       -0.000069086253 Rises=F Damp=F
 DIIS: error= 4.91D-04 at cycle  27 NSaved=  19.
 NSaved=19 IEnMin=19 EnMin= -1064.74081808785     IErMin=19 ErrMin= 4.91D-04
 ErrMax= 4.91D-04 EMaxC= 1.00D-01 BMatC= 1.11D-05 BMatP= 1.86D-05
 IDIUse=3 WtCom= 9.95D-01 WtEn= 4.91D-03
 Coeff-Com:  0.552D-02-0.362D-02-0.910D-02 0.246D-01-0.102D-01 0.295D-01
 Coeff-Com: -0.129D+00 0.844D-01 0.148D+00-0.240D+00-0.694D-01 0.649D+00
 Coeff-Com: -0.285D+00-0.155D+01 0.163D+01 0.161D+01-0.218D+00-0.893D+01
 Coeff-Com:  0.826D+01
 Coeff-En:   0.000D+00 0.000D+00 0.000D+00 0.000D+00 0.000D+00 0.000D+00
 Coeff-En:   0.000D+00 0.000D+00 0.000D+00 0.000D+00 0.000D+00 0.000D+00
 Coeff-En:   0.000D+00 0.000D+00 0.000D+00 0.000D+00 0.000D+00 0.000D+00
 Coeff-En:   0.100D+01
 Coeff:      0.549D-02-0.361D-02-0.905D-02 0.244D-01-0.101D-01 0.293D-01
 Coeff:     -0.129D+00 0.839D-01 0.148D+00-0.239D+00-0.691D-01 0.646D+00
 Coeff:     -0.284D+00-0.154D+01 0.162D+01 0.160D+01-0.217D+00-0.889D+01
 Coeff:      0.823D+01
 Gap=     0.324 Goal=   None    Shift=    1.000
 RMSDP=5.11D-05 MaxDP=1.23D-03 DE=-6.91D-05 OVMax= 0.00D+00

 Cycle  28  Pass 1  IDiag  1:
 E= -1064.74086265574     Delta-E=       -0.000044567890 Rises=F Damp=F
 DIIS: error= 3.79D-04 at cycle  28 NSaved=  20.
 NSaved=20 IEnMin=20 EnMin= -1064.74086265574     IErMin=20 ErrMin= 3.79D-04
 ErrMax= 3.79D-04 EMaxC= 1.00D-01 BMatC= 6.76D-06 BMatP= 1.11D-05
 IDIUse=3 WtCom= 9.96D-01 WtEn= 3.79D-03
 Matrix for removal  1 Erem= -1064.22217646699     Crem= 0.000D+00
 Coeff-Com:  0.274D-02-0.676D-03 0.338D-02-0.121D-01 0.179D-01 0.488D-01
 Coeff-Com: -0.175D+00 0.381D-01 0.364D+00-0.314D+00-0.251D+00 0.281D+00
 Coeff-Com:  0.606D+00-0.140D+01 0.327D+00 0.202D+01 0.879D+00-0.825D+01
 Coeff-Com:  0.493D+01 0.189D+01
 Coeff-En:   0.000D+00 0.000D+00 0.000D+00 0.000D+00 0.000D+00 0.000D+00
 Coeff-En:   0.000D+00 0.000D+00 0.000D+00 0.000D+00 0.000D+00 0.000D+00
 Coeff-En:   0.000D+00 0.000D+00 0.000D+00 0.000D+00 0.000D+00 0.000D+00
 Coeff-En:   0.000D+00 0.100D+01
 Coeff:      0.273D-02-0.674D-03 0.337D-02-0.120D-01 0.178D-01 0.486D-01
 Coeff:     -0.174D+00 0.379D-01 0.362D+00-0.313D+00-0.250D+00 0.280D+00
 Coeff:      0.603D+00-0.140D+01 0.325D+00 0.201D+01 0.876D+00-0.822D+01
 Coeff:      0.491D+01 0.189D+01
 Gap=     0.324 Goal=   None    Shift=    1.000
 RMSDP=3.88D-05 MaxDP=9.25D-04 DE=-4.46D-05 OVMax= 0.00D+00

 Cycle  29  Pass 1  IDiag  1:
 E= -1064.74088846507     Delta-E=       -0.000025809324 Rises=F Damp=F
 DIIS: error= 2.92D-04 at cycle  29 NSaved=  20.
 NSaved=20 IEnMin=20 EnMin= -1064.74088846507     IErMin=20 ErrMin= 2.92D-04
 ErrMax= 2.92D-04 EMaxC= 1.00D-01 BMatC= 4.20D-06 BMatP= 6.76D-06
 IDIUse=3 WtCom= 9.97D-01 WtEn= 2.92D-03
 Matrix for removal  1 Erem= -1064.31856455311     Crem= 0.000D+00
 Coeff-Com:  0.190D-02 0.332D-02-0.533D-02-0.151D-02-0.205D-01 0.641D-01
 Coeff-Com: -0.731D-01 0.254D-02 0.565D-01 0.176D+00-0.579D+00 0.428D+00
 Coeff-Com:  0.303D+00-0.742D-01-0.139D+01 0.694D+00 0.239D+01-0.173D+00
 Coeff-Com: -0.825D+01 0.745D+01
 Coeff-En:   0.000D+00 0.000D+00 0.000D+00 0.000D+00 0.000D+00 0.000D+00
 Coeff-En:   0.000D+00 0.000D+00 0.000D+00 0.000D+00 0.000D+00 0.000D+00
 Coeff-En:   0.000D+00 0.000D+00 0.000D+00 0.000D+00 0.000D+00 0.000D+00
 Coeff-En:   0.000D+00 0.100D+01
 Coeff:      0.190D-02 0.331D-02-0.531D-02-0.151D-02-0.204D-01 0.639D-01
 Coeff:     -0.729D-01 0.254D-02 0.563D-01 0.175D+00-0.577D+00 0.427D+00
 Coeff:      0.302D+00-0.739D-01-0.138D+01 0.692D+00 0.238D+01-0.172D+00
 Coeff:     -0.823D+01 0.743D+01
 Gap=     0.325 Goal=   None    Shift=    1.000
 RMSDP=3.13D-05 MaxDP=7.71D-04 DE=-2.58D-05 OVMax= 0.00D+00

 Cycle  30  Pass 1  IDiag  1:
 E= -1064.74090401804     Delta-E=       -0.000015552971 Rises=F Damp=F
 DIIS: error= 2.27D-04 at cycle  30 NSaved=  20.
 NSaved=20 IEnMin=20 EnMin= -1064.74090401804     IErMin=20 ErrMin= 2.27D-04
 ErrMax= 2.27D-04 EMaxC= 1.00D-01 BMatC= 2.68D-06 BMatP= 4.20D-06
 IDIUse=3 WtCom= 9.98D-01 WtEn= 2.27D-03
 Matrix for removal  1 Erem= -1064.41541875702     Crem= 0.000D+00
 Coeff-Com: -0.191D-02 0.222D-01-0.250D-01-0.322D-01 0.716D-01-0.151D-01
 Coeff-Com: -0.643D-01-0.186D-01 0.268D+00-0.345D+00 0.178D+00-0.141D+00
 Coeff-Com:  0.731D+00-0.155D+01 0.121D+00 0.234D+01 0.163D+00-0.575D+01
 Coeff-Com:  0.306D+01 0.199D+01
 Coeff-En:   0.000D+00 0.000D+00 0.000D+00 0.000D+00 0.000D+00 0.000D+00
 Coeff-En:   0.000D+00 0.000D+00 0.000D+00 0.000D+00 0.000D+00 0.000D+00
 Coeff-En:   0.000D+00 0.000D+00 0.000D+00 0.000D+00 0.000D+00 0.000D+00
 Coeff-En:   0.000D+00 0.100D+01
 Coeff:     -0.191D-02 0.221D-01-0.249D-01-0.321D-01 0.714D-01-0.151D-01
 Coeff:     -0.642D-01-0.186D-01 0.267D+00-0.344D+00 0.178D+00-0.141D+00
 Coeff:      0.729D+00-0.154D+01 0.121D+00 0.234D+01 0.163D+00-0.574D+01
 Coeff:      0.305D+01 0.198D+01
 Gap=     0.325 Goal=   None    Shift=    1.000
 RMSDP=2.40D-05 MaxDP=5.89D-04 DE=-1.56D-05 OVMax= 0.00D+00

 Cycle  31  Pass 1  IDiag  1:
 E= -1064.74091298162     Delta-E=       -0.000008963581 Rises=F Damp=F
 DIIS: error= 1.73D-04 at cycle  31 NSaved=  20.
 NSaved=20 IEnMin=20 EnMin= -1064.74091298162     IErMin=20 ErrMin= 1.73D-04
 ErrMax= 1.73D-04 EMaxC= 1.00D-01 BMatC= 1.68D-06 BMatP= 2.68D-06
 IDIUse=3 WtCom= 9.98D-01 WtEn= 1.73D-03
 Matrix for removal  1 Erem= -1064.49491877699     Crem= 0.000D+00
 Coeff-Com:  0.241D-02-0.907D-02 0.396D-01-0.803D-01 0.336D-01 0.100D+00
 Coeff-Com: -0.110D+00-0.104D+00 0.218D+00 0.125D+00-0.690D+00 0.564D+00
 Coeff-Com:  0.525D+00-0.825D-01-0.234D+01 0.926D+00 0.350D+01-0.942D+00
 Coeff-Com: -0.803D+01 0.736D+01
 Coeff-En:   0.000D+00 0.000D+00 0.000D+00 0.000D+00 0.000D+00 0.000D+00
 Coeff-En:   0.000D+00 0.000D+00 0.000D+00 0.000D+00 0.000D+00 0.000D+00
 Coeff-En:   0.000D+00 0.000D+00 0.000D+00 0.000D+00 0.000D+00 0.000D+00
 Coeff-En:   0.000D+00 0.100D+01
 Coeff:      0.240D-02-0.905D-02 0.395D-01-0.802D-01 0.336D-01 0.100D+00
 Coeff:     -0.110D+00-0.103D+00 0.217D+00 0.125D+00-0.689D+00 0.563D+00
 Coeff:      0.524D+00-0.824D-01-0.234D+01 0.925D+00 0.349D+01-0.940D+00
 Coeff:     -0.802D+01 0.735D+01
 Gap=     0.325 Goal=   None    Shift=    1.000
 RMSDP=1.86D-05 MaxDP=4.36D-04 DE=-8.96D-06 OVMax= 0.00D+00

 Cycle  32  Pass 1  IDiag  1:
 E= -1064.74091827373     Delta-E=       -0.000005292115 Rises=F Damp=F
 DIIS: error= 1.31D-04 at cycle  32 NSaved=  20.
 NSaved=20 IEnMin=20 EnMin= -1064.74091827373     IErMin=20 ErrMin= 1.31D-04
 ErrMax= 1.31D-04 EMaxC= 1.00D-01 BMatC= 1.05D-06 BMatP= 1.68D-06
 IDIUse=3 WtCom= 9.99D-01 WtEn= 1.31D-03
 Matrix for removal  1 Erem= -1064.56890896545     Crem= 0.000D+00
 Coeff-Com: -0.124D-02 0.250D-02 0.564D-02-0.411D-01 0.509D-01 0.188D-01
 Coeff-Com: -0.313D-02-0.137D+00 0.174D+00-0.107D+00 0.533D-01 0.161D-01
 Coeff-Com:  0.279D+00-0.717D+00-0.249D+00 0.104D+01 0.142D+01-0.345D+01
 Coeff-Com: -0.127D+01 0.392D+01
 Coeff-En:   0.000D+00 0.000D+00 0.000D+00 0.000D+00 0.000D+00 0.000D+00
 Coeff-En:   0.000D+00 0.000D+00 0.000D+00 0.000D+00 0.000D+00 0.000D+00
 Coeff-En:   0.000D+00 0.000D+00 0.000D+00 0.000D+00 0.000D+00 0.000D+00
 Coeff-En:   0.000D+00 0.100D+01
 Coeff:     -0.124D-02 0.250D-02 0.564D-02-0.411D-01 0.508D-01 0.187D-01
 Coeff:     -0.312D-02-0.137D+00 0.174D+00-0.107D+00 0.533D-01 0.160D-01
 Coeff:      0.279D+00-0.716D+00-0.249D+00 0.104D+01 0.142D+01-0.345D+01
 Coeff:     -0.127D+01 0.391D+01
 Gap=     0.325 Goal=   None    Shift=    1.000
 RMSDP=1.35D-05 MaxDP=2.95D-04 DE=-5.29D-06 OVMax= 0.00D+00

 Cycle  33  Pass 1  IDiag  1:
 E= -1064.74092126844     Delta-E=       -0.000002994709 Rises=F Damp=F
 DIIS: error= 1.00D-04 at cycle  33 NSaved=  20.
 NSaved=20 IEnMin=20 EnMin= -1064.74092126844     IErMin=20 ErrMin= 1.00D-04
 ErrMax= 1.00D-04 EMaxC= 1.00D-01 BMatC= 6.56D-07 BMatP= 1.05D-06
 IDIUse=3 WtCom= 9.99D-01 WtEn= 1.00D-03
 Matrix for removal  1 Erem= -1064.63504439489     Crem= 0.000D+00
 Coeff-Com: -0.104D-01 0.363D-01-0.267D-01-0.194D-01-0.510D-02 0.110D+00
 Coeff-Com: -0.193D+00 0.784D-01 0.240D+00-0.138D+00-0.483D+00 0.437D+00
 Coeff-Com:  0.553D+00-0.435D+00-0.160D+01 0.147D+01 0.172D+01-0.101D+01
 Coeff-Com: -0.529D+01 0.558D+01
 Coeff-En:   0.000D+00 0.000D+00 0.000D+00 0.000D+00 0.000D+00 0.000D+00
 Coeff-En:   0.000D+00 0.000D+00 0.000D+00 0.000D+00 0.000D+00 0.000D+00
 Coeff-En:   0.000D+00 0.000D+00 0.000D+00 0.000D+00 0.000D+00 0.000D+00
 Coeff-En:   0.000D+00 0.100D+01
 Coeff:     -0.104D-01 0.363D-01-0.267D-01-0.194D-01-0.509D-02 0.110D+00
 Coeff:     -0.193D+00 0.783D-01 0.240D+00-0.138D+00-0.482D+00 0.437D+00
 Coeff:      0.552D+00-0.434D+00-0.160D+01 0.147D+01 0.171D+01-0.101D+01
 Coeff:     -0.529D+01 0.558D+01
 Gap=     0.325 Goal=   None    Shift=    1.000
 RMSDP=9.50D-06 MaxDP=2.04D-04 DE=-2.99D-06 OVMax= 0.00D+00

 Cycle  34  Pass 1  IDiag  1:
 E= -1064.74092305482     Delta-E=       -0.000001786374 Rises=F Damp=F
 DIIS: error= 7.46D-05 at cycle  34 NSaved=  20.
 NSaved=20 IEnMin=20 EnMin= -1064.74092305482     IErMin=20 ErrMin= 7.46D-05
 ErrMax= 7.46D-05 EMaxC= 1.00D-01 BMatC= 3.93D-07 BMatP= 6.56D-07
 IDIUse=1 WtCom= 1.00D+00 WtEn= 0.00D+00
 Coeff-Com: -0.388D-02 0.813D-02 0.660D-02-0.198D-01-0.151D-01 0.577D-01
 Coeff-Com: -0.656D-01 0.955D-01-0.385D-01-0.274D+00 0.347D+00-0.401D-01
 Coeff-Com:  0.219D+00-0.429D+00-0.582D+00 0.906D+00 0.217D+01-0.390D+01
 Coeff-Com: -0.200D+01 0.456D+01
 Coeff:     -0.388D-02 0.813D-02 0.660D-02-0.198D-01-0.151D-01 0.577D-01
 Coeff:     -0.656D-01 0.955D-01-0.385D-01-0.274D+00 0.347D+00-0.401D-01
 Coeff:      0.219D+00-0.429D+00-0.582D+00 0.906D+00 0.217D+01-0.390D+01
 Coeff:     -0.200D+01 0.456D+01
 Gap=     0.325 Goal=   None    Shift=    1.000
 RMSDP=6.79D-06 MaxDP=1.48D-04 DE=-1.79D-06 OVMax= 0.00D+00

 Cycle  35  Pass 1  IDiag  1:
 E= -1064.74092416538     Delta-E=       -0.000001110566 Rises=F Damp=F
 DIIS: error= 5.64D-05 at cycle  35 NSaved=  20.
 NSaved=20 IEnMin=20 EnMin= -1064.74092416538     IErMin=20 ErrMin= 5.64D-05
 ErrMax= 5.64D-05 EMaxC= 1.00D-01 BMatC= 2.30D-07 BMatP= 3.93D-07
 IDIUse=1 WtCom= 1.00D+00 WtEn= 0.00D+00
 Coeff-Com: -0.474D-02 0.104D-01 0.103D-01-0.293D-01 0.116D-02 0.185D-01
 Coeff-Com: -0.352D-01 0.635D-01-0.229D-01 0.191D+00-0.576D+00 0.149D+00
 Coeff-Com:  0.679D+00-0.132D-01-0.131D+01-0.179D+00 0.320D+01-0.173D+01
 Coeff-Com: -0.433D+01 0.491D+01
 Coeff:     -0.474D-02 0.104D-01 0.103D-01-0.293D-01 0.116D-02 0.185D-01
 Coeff:     -0.352D-01 0.635D-01-0.229D-01 0.191D+00-0.576D+00 0.149D+00
 Coeff:      0.679D+00-0.132D-01-0.131D+01-0.179D+00 0.320D+01-0.173D+01
 Coeff:     -0.433D+01 0.491D+01
 Gap=     0.325 Goal=   None    Shift=    1.000
 RMSDP=5.08D-06 MaxDP=1.18D-04 DE=-1.11D-06 OVMax= 0.00D+00

 Cycle  36  Pass 1  IDiag  1:
 E= -1064.74092484350     Delta-E=       -0.000000678118 Rises=F Damp=F
 DIIS: error= 4.28D-05 at cycle  36 NSaved=  20.
 NSaved=20 IEnMin=20 EnMin= -1064.74092484350     IErMin=20 ErrMin= 4.28D-05
 ErrMax= 4.28D-05 EMaxC= 1.00D-01 BMatC= 1.30D-07 BMatP= 2.30D-07
 IDIUse=1 WtCom= 1.00D+00 WtEn= 0.00D+00
 Coeff-Com: -0.138D-03-0.877D-02 0.399D-01-0.443D-01-0.930D-02 0.308D-01
 Coeff-Com:  0.523D-01-0.188D+00 0.103D+00 0.186D+00-0.571D-01-0.526D+00
 Coeff-Com:  0.539D+00 0.374D+00-0.103D+01 0.848D-01 0.115D+01 0.280D-01
 Coeff-Com: -0.406D+01 0.434D+01
 Coeff:     -0.138D-03-0.877D-02 0.399D-01-0.443D-01-0.930D-02 0.308D-01
 Coeff:      0.523D-01-0.188D+00 0.103D+00 0.186D+00-0.571D-01-0.526D+00
 Coeff:      0.539D+00 0.374D+00-0.103D+01 0.848D-01 0.115D+01 0.280D-01
 Coeff:     -0.406D+01 0.434D+01
 Gap=     0.325 Goal=   None    Shift=    1.000
 RMSDP=3.86D-06 MaxDP=1.12D-04 DE=-6.78D-07 OVMax= 0.00D+00

 Cycle  37  Pass 1  IDiag  1:
 E= -1064.74092523184     Delta-E=       -0.000000388335 Rises=F Damp=F
 DIIS: error= 3.25D-05 at cycle  37 NSaved=  20.
 NSaved=20 IEnMin=20 EnMin= -1064.74092523184     IErMin=20 ErrMin= 3.25D-05
 ErrMax= 3.25D-05 EMaxC= 1.00D-01 BMatC= 7.43D-08 BMatP= 1.30D-07
 IDIUse=1 WtCom= 1.00D+00 WtEn= 0.00D+00
 Coeff-Com: -0.580D-02 0.208D-01-0.293D-01 0.242D-01 0.193D-01-0.262D-01
 Coeff-Com: -0.127D+00 0.923D-01 0.206D+00-0.121D-01-0.546D+00 0.175D+00
 Coeff-Com:  0.730D+00 0.119D+00-0.183D+01 0.459D+00 0.272D+01-0.236D+01
 Coeff-Com: -0.291D+01 0.429D+01
 Coeff:     -0.580D-02 0.208D-01-0.293D-01 0.242D-01 0.193D-01-0.262D-01
 Coeff:     -0.127D+00 0.923D-01 0.206D+00-0.121D-01-0.546D+00 0.175D+00
 Coeff:      0.730D+00 0.119D+00-0.183D+01 0.459D+00 0.272D+01-0.236D+01
 Coeff:     -0.291D+01 0.429D+01
 Gap=     0.325 Goal=   None    Shift=    1.000
 RMSDP=3.03D-06 MaxDP=1.03D-04 DE=-3.88D-07 OVMax= 0.00D+00

 Cycle  38  Pass 1  IDiag  1:
 E= -1064.74092545644     Delta-E=       -0.000000224607 Rises=F Damp=F
 DIIS: error= 2.48D-05 at cycle  38 NSaved=  20.
 NSaved=20 IEnMin=20 EnMin= -1064.74092545644     IErMin=20 ErrMin= 2.48D-05
 ErrMax= 2.48D-05 EMaxC= 1.00D-01 BMatC= 4.32D-08 BMatP= 7.43D-08
 IDIUse=1 WtCom= 1.00D+00 WtEn= 0.00D+00
 Coeff-Com: -0.204D-02 0.376D-02 0.136D-01-0.526D-01 0.452D-01 0.304D-01
 Coeff-Com:  0.359D-01-0.250D+00 0.159D+00 0.170D+00-0.545D-01-0.493D+00
 Coeff-Com:  0.453D+00 0.345D+00-0.838D+00 0.360D-02 0.132D+01-0.897D+00
 Coeff-Com: -0.282D+01 0.382D+01
 Coeff:     -0.204D-02 0.376D-02 0.136D-01-0.526D-01 0.452D-01 0.304D-01
 Coeff:      0.359D-01-0.250D+00 0.159D+00 0.170D+00-0.545D-01-0.493D+00
 Coeff:      0.453D+00 0.345D+00-0.838D+00 0.360D-02 0.132D+01-0.897D+00
 Coeff:     -0.282D+01 0.382D+01
 Gap=     0.325 Goal=   None    Shift=    1.000
 RMSDP=2.31D-06 MaxDP=7.86D-05 DE=-2.25D-07 OVMax= 0.00D+00

 Cycle  39  Pass 1  IDiag  1:
 E= -1064.74092558499     Delta-E=       -0.000000128548 Rises=F Damp=F
 DIIS: error= 1.90D-05 at cycle  39 NSaved=  20.
 NSaved=20 IEnMin=20 EnMin= -1064.74092558499     IErMin=20 ErrMin= 1.90D-05
 ErrMax= 1.90D-05 EMaxC= 1.00D-01 BMatC= 2.46D-08 BMatP= 4.32D-08
 IDIUse=1 WtCom= 1.00D+00 WtEn= 0.00D+00
 Coeff-Com:  0.765D-02-0.788D-02-0.243D-01 0.400D-01-0.194D-02-0.274D-01
 Coeff-Com: -0.140D-01 0.595D-01-0.271D-01 0.602D-01-0.235D+00 0.203D+00
 Coeff-Com:  0.111D-02-0.613D-01-0.940D-01 0.682D-01 0.450D+00 0.234D+00
 Coeff-Com: -0.417D+01 0.454D+01
 Coeff:      0.765D-02-0.788D-02-0.243D-01 0.400D-01-0.194D-02-0.274D-01
 Coeff:     -0.140D-01 0.595D-01-0.271D-01 0.602D-01-0.235D+00 0.203D+00
 Coeff:      0.111D-02-0.613D-01-0.940D-01 0.682D-01 0.450D+00 0.234D+00
 Coeff:     -0.417D+01 0.454D+01
 Gap=     0.325 Goal=   None    Shift=    1.000
 RMSDP=1.77D-06 MaxDP=6.12D-05 DE=-1.29D-07 OVMax= 0.00D+00

 Cycle  40  Pass 1  IDiag  1:
 E= -1064.74092565774     Delta-E=       -0.000000072752 Rises=F Damp=F
 DIIS: error= 1.45D-05 at cycle  40 NSaved=  20.
 NSaved=20 IEnMin=20 EnMin= -1064.74092565774     IErMin=20 ErrMin= 1.45D-05
 ErrMax= 1.45D-05 EMaxC= 1.00D-01 BMatC= 1.40D-08 BMatP= 2.46D-08
 IDIUse=1 WtCom= 1.00D+00 WtEn= 0.00D+00
 Coeff-Com:  0.187D-02 0.127D-01-0.219D-01-0.247D-01-0.180D-01 0.168D+00
 Coeff-Com: -0.649D-01-0.213D+00 0.120D+00 0.190D+00 0.607D-01-0.715D+00
 Coeff-Com:  0.446D+00 0.726D+00-0.111D+01-0.488D+00 0.283D+01-0.236D+01
 Coeff-Com: -0.289D+01 0.434D+01
 Coeff:      0.187D-02 0.127D-01-0.219D-01-0.247D-01-0.180D-01 0.168D+00
 Coeff:     -0.649D-01-0.213D+00 0.120D+00 0.190D+00 0.607D-01-0.715D+00
 Coeff:      0.446D+00 0.726D+00-0.111D+01-0.488D+00 0.283D+01-0.236D+01
 Coeff:     -0.289D+01 0.434D+01
 Gap=     0.325 Goal=   None    Shift=    1.000
 RMSDP=1.40D-06 MaxDP=4.90D-05 DE=-7.28D-08 OVMax= 0.00D+00

 Cycle  41  Pass 1  IDiag  1:
 E= -1064.74092569957     Delta-E=       -0.000000041822 Rises=F Damp=F
 DIIS: error= 1.11D-05 at cycle  41 NSaved=  20.
 NSaved=20 IEnMin=20 EnMin= -1064.74092569957     IErMin=20 ErrMin= 1.11D-05
 ErrMax= 1.11D-05 EMaxC= 1.00D-01 BMatC= 8.17D-09 BMatP= 1.40D-08
 IDIUse=1 WtCom= 1.00D+00 WtEn= 0.00D+00
 Coeff-Com:  0.797D-02-0.108D-01-0.179D-01 0.363D-01-0.142D-01 0.253D-02
 Coeff-Com: -0.153D-01 0.325D-01-0.505D-01 0.130D+00-0.288D+00 0.847D-01
 Coeff-Com:  0.337D+00-0.258D+00-0.256D+00 0.862D-01 0.118D+01-0.783D+00
 Coeff-Com: -0.374D+01 0.454D+01
 Coeff:      0.797D-02-0.108D-01-0.179D-01 0.363D-01-0.142D-01 0.253D-02
 Coeff:     -0.153D-01 0.325D-01-0.505D-01 0.130D+00-0.288D+00 0.847D-01
 Coeff:      0.337D+00-0.258D+00-0.256D+00 0.862D-01 0.118D+01-0.783D+00
 Coeff:     -0.374D+01 0.454D+01
 Gap=     0.325 Goal=   None    Shift=    1.000
 RMSDP=1.08D-06 MaxDP=3.84D-05 DE=-4.18D-08 OVMax= 0.00D+00

 Cycle  42  Pass 1  IDiag  1:
 E= -1064.74092572339     Delta-E=       -0.000000023828 Rises=F Damp=F
 DIIS: error= 8.48D-06 at cycle  42 NSaved=  20.
 NSaved=20 IEnMin=20 EnMin= -1064.74092572339     IErMin=20 ErrMin= 8.48D-06
 ErrMax= 8.48D-06 EMaxC= 1.00D-01 BMatC= 4.84D-09 BMatP= 8.17D-09
 IDIUse=1 WtCom= 1.00D+00 WtEn= 0.00D+00
 Coeff-Com:  0.852D-02-0.153D-01 0.343D-01-0.837D-01 0.424D-01 0.865D-01
 Coeff-Com: -0.497D-01-0.199D+00 0.235D+00 0.446D-01-0.133D+00-0.177D+00
 Coeff-Com:  0.384D+00 0.252D+00-0.105D+01-0.177D-01 0.223D+01-0.140D+01
 Coeff-Com: -0.411D+01 0.493D+01
 Coeff:      0.852D-02-0.153D-01 0.343D-01-0.837D-01 0.424D-01 0.865D-01
 Coeff:     -0.497D-01-0.199D+00 0.235D+00 0.446D-01-0.133D+00-0.177D+00
 Coeff:      0.384D+00 0.252D+00-0.105D+01-0.177D-01 0.223D+01-0.140D+01
 Coeff:     -0.411D+01 0.493D+01
 Gap=     0.325 Goal=   None    Shift=    1.000
 RMSDP=8.44D-07 MaxDP=2.88D-05 DE=-2.38D-08 OVMax= 0.00D+00

 Cycle  43  Pass 1  IDiag  1:
 E= -1064.74092573712     Delta-E=       -0.000000013722 Rises=F Damp=F
 DIIS: error= 6.47D-06 at cycle  43 NSaved=  20.
 NSaved=20 IEnMin=20 EnMin= -1064.74092573712     IErMin=20 ErrMin= 6.47D-06
 ErrMax= 6.47D-06 EMaxC= 1.00D-01 BMatC= 2.87D-09 BMatP= 4.84D-09
 IDIUse=1 WtCom= 1.00D+00 WtEn= 0.00D+00
 Coeff-Com:  0.519D-02-0.827D-03-0.179D-01 0.129D-01 0.270D-02 0.293D-01
 Coeff-Com: -0.736D-01 0.259D-02 0.665D-01-0.237D-02-0.730D-01 0.275D-01
 Coeff-Com:  0.868D-01 0.120D+00-0.503D+00-0.414D-01 0.107D+01-0.276D+00
 Coeff-Com: -0.393D+01 0.449D+01
 Coeff:      0.519D-02-0.827D-03-0.179D-01 0.129D-01 0.270D-02 0.293D-01
 Coeff:     -0.736D-01 0.259D-02 0.665D-01-0.237D-02-0.730D-01 0.275D-01
 Coeff:      0.868D-01 0.120D+00-0.503D+00-0.414D-01 0.107D+01-0.276D+00
 Coeff:     -0.393D+01 0.449D+01
 Gap=     0.325 Goal=   None    Shift=    1.000
 RMSDP=6.38D-07 MaxDP=2.04D-05 DE=-1.37D-08 OVMax= 0.00D+00

 Cycle  44  Pass 1  IDiag  1:
 E= -1064.74092574500     Delta-E=       -0.000000007885 Rises=F Damp=F
 DIIS: error= 4.91D-06 at cycle  44 NSaved=  20.
 NSaved=20 IEnMin=20 EnMin= -1064.74092574500     IErMin=20 ErrMin= 4.91D-06
 ErrMax= 4.91D-06 EMaxC= 1.00D-01 BMatC= 1.67D-09 BMatP= 2.87D-09
 IDIUse=1 WtCom= 1.00D+00 WtEn= 0.00D+00
 Coeff-Com: -0.877D-02 0.257D-01-0.836D-02-0.324D-01 0.425D-01-0.252D-01
 Coeff-Com:  0.237D-01-0.978D-01 0.735D-01 0.983D-01-0.120D+00-0.154D+00
 Coeff-Com:  0.362D+00 0.212D+00-0.116D+01 0.236D+00 0.244D+01-0.247D+01
 Coeff-Com: -0.261D+01 0.417D+01
 Coeff:     -0.877D-02 0.257D-01-0.836D-02-0.324D-01 0.425D-01-0.252D-01
 Coeff:      0.237D-01-0.978D-01 0.735D-01 0.983D-01-0.120D+00-0.154D+00
 Coeff:      0.362D+00 0.212D+00-0.116D+01 0.236D+00 0.244D+01-0.247D+01
 Coeff:     -0.261D+01 0.417D+01
 Gap=     0.325 Goal=   None    Shift=    1.000
 RMSDP=4.75D-07 MaxDP=1.51D-05 DE=-7.89D-09 OVMax= 0.00D+00

 Cycle  45  Pass 1  IDiag  1:
 E= -1064.74092574941     Delta-E=       -0.000000004405 Rises=F Damp=F
 DIIS: error= 3.74D-06 at cycle  45 NSaved=  20.
 NSaved=20 IEnMin=20 EnMin= -1064.74092574941     IErMin=20 ErrMin= 3.74D-06
 ErrMax= 3.74D-06 EMaxC= 1.00D-01 BMatC= 9.74D-10 BMatP= 1.67D-09
 IDIUse=1 WtCom= 1.00D+00 WtEn= 0.00D+00
 Coeff-Com:  0.504D-02-0.112D-01 0.454D-02 0.180D-01-0.337D-01 0.371D-01
 Coeff-Com: -0.659D-01 0.590D-01-0.191D-01 0.177D-02 0.226D-01-0.906D-01
 Coeff-Com:  0.310D+00-0.399D+00-0.216D+00 0.819D+00-0.794D-01-0.890D+00
 Coeff-Com: -0.219D+01 0.372D+01
 Coeff:      0.504D-02-0.112D-01 0.454D-02 0.180D-01-0.337D-01 0.371D-01
 Coeff:     -0.659D-01 0.590D-01-0.191D-01 0.177D-02 0.226D-01-0.906D-01
 Coeff:      0.310D+00-0.399D+00-0.216D+00 0.819D+00-0.794D-01-0.890D+00
 Coeff:     -0.219D+01 0.372D+01
 Gap=     0.325 Goal=   None    Shift=    1.000
 RMSDP=3.63D-07 MaxDP=1.16D-05 DE=-4.40D-09 OVMax= 0.00D+00

 Cycle  46  Pass 1  IDiag  1:
 E= -1064.74092575198     Delta-E=       -0.000000002574 Rises=F Damp=F
 DIIS: error= 2.83D-06 at cycle  46 NSaved=  20.
 NSaved=20 IEnMin=20 EnMin= -1064.74092575198     IErMin=20 ErrMin= 2.83D-06
 ErrMax= 2.83D-06 EMaxC= 1.00D-01 BMatC= 5.63D-10 BMatP= 9.74D-10
 IDIUse=1 WtCom= 1.00D+00 WtEn= 0.00D+00
 Coeff-Com:  0.245D-02-0.479D-02 0.139D-01-0.297D-01-0.214D-03 0.396D-01
 Coeff-Com: -0.612D-02-0.420D-01-0.981D-03 0.106D+00-0.412D-01-0.267D+00
 Coeff-Com:  0.171D+00 0.458D+00-0.185D+00-0.179D+01 0.297D+01-0.107D+00
 Coeff-Com: -0.564D+01 0.535D+01
 Coeff:      0.245D-02-0.479D-02 0.139D-01-0.297D-01-0.214D-03 0.396D-01
 Coeff:     -0.612D-02-0.420D-01-0.981D-03 0.106D+00-0.412D-01-0.267D+00
 Coeff:      0.171D+00 0.458D+00-0.185D+00-0.179D+01 0.297D+01-0.107D+00
 Coeff:     -0.564D+01 0.535D+01
 Gap=     0.325 Goal=   None    Shift=    1.000
 RMSDP=2.69D-07 MaxDP=8.65D-06 DE=-2.57D-09 OVMax= 0.00D+00

 Cycle  47  Pass 1  IDiag  1:
 E= -1064.74092575343     Delta-E=       -0.000000001448 Rises=F Damp=F
 DIIS: error= 2.15D-06 at cycle  47 NSaved=  20.
 NSaved=20 IEnMin=20 EnMin= -1064.74092575343     IErMin=20 ErrMin= 2.15D-06
 ErrMax= 2.15D-06 EMaxC= 1.00D-01 BMatC= 3.27D-10 BMatP= 5.63D-10
 IDIUse=1 WtCom= 1.00D+00 WtEn= 0.00D+00
 Coeff-Com:  0.163D-02-0.408D-02 0.140D-01-0.108D-01-0.256D-01-0.212D-01
 Coeff-Com:  0.125D+00-0.841D-01-0.115D+00 0.248D+00 0.616D-01-0.519D+00
 Coeff-Com: -0.220D-01 0.138D+01-0.164D+01-0.164D+00 0.177D+01 0.327D+00
 Coeff-Com: -0.560D+01 0.528D+01
 Coeff:      0.163D-02-0.408D-02 0.140D-01-0.108D-01-0.256D-01-0.212D-01
 Coeff:      0.125D+00-0.841D-01-0.115D+00 0.248D+00 0.616D-01-0.519D+00
 Coeff:     -0.220D-01 0.138D+01-0.164D+01-0.164D+00 0.177D+01 0.327D+00
 Coeff:     -0.560D+01 0.528D+01
 Gap=     0.325 Goal=   None    Shift=    1.000
 RMSDP=2.04D-07 MaxDP=6.32D-06 DE=-1.45D-09 OVMax= 0.00D+00

 Cycle  48  Pass 1  IDiag  1:
 E= -1064.74092575425     Delta-E=       -0.000000000819 Rises=F Damp=F
 DIIS: error= 1.64D-06 at cycle  48 NSaved=  20.
 NSaved=20 IEnMin=20 EnMin= -1064.74092575425     IErMin=20 ErrMin= 1.64D-06
 ErrMax= 1.64D-06 EMaxC= 1.00D-01 BMatC= 1.91D-10 BMatP= 3.27D-10
 IDIUse=1 WtCom= 1.00D+00 WtEn= 0.00D+00
 Coeff-Com: -0.872D-02 0.240D-01 0.438D-02-0.501D-01-0.164D-01 0.115D+00
 Coeff-Com: -0.484D-01-0.174D+00 0.224D+00 0.220D+00-0.574D+00-0.228D+00
 Coeff-Com:  0.148D+01-0.447D+00-0.243D+01 0.133D+01 0.406D+01-0.534D+01
 Coeff-Com: -0.955D+00 0.382D+01
 Coeff:     -0.872D-02 0.240D-01 0.438D-02-0.501D-01-0.164D-01 0.115D+00
 Coeff:     -0.484D-01-0.174D+00 0.224D+00 0.220D+00-0.574D+00-0.228D+00
 Coeff:      0.148D+01-0.447D+00-0.243D+01 0.133D+01 0.406D+01-0.534D+01
 Coeff:     -0.955D+00 0.382D+01
 Gap=     0.325 Goal=   None    Shift=    1.000
 RMSDP=1.52D-07 MaxDP=4.57D-06 DE=-8.19D-10 OVMax= 0.00D+00

 Cycle  49  Pass 1  IDiag  1:
 E= -1064.74092575472     Delta-E=       -0.000000000472 Rises=F Damp=F
 DIIS: error= 1.24D-06 at cycle  49 NSaved=  20.
 NSaved=20 IEnMin=20 EnMin= -1064.74092575472     IErMin=20 ErrMin= 1.24D-06
 ErrMax= 1.24D-06 EMaxC= 1.00D-01 BMatC= 1.09D-10 BMatP= 1.91D-10
 IDIUse=1 WtCom= 1.00D+00 WtEn= 0.00D+00
 Coeff-Com:  0.494D-03-0.991D-03-0.121D-02-0.725D-02 0.210D-01 0.299D-02
 Coeff-Com: -0.683D-01 0.694D-01 0.631D-01-0.143D+00-0.128D+00 0.413D+00
 Coeff-Com:  0.162D+00-0.100D+01 0.239D+00 0.969D+00-0.619D-01-0.130D+01
 Coeff-Com: -0.151D+01 0.328D+01
 Coeff:      0.494D-03-0.991D-03-0.121D-02-0.725D-02 0.210D-01 0.299D-02
 Coeff:     -0.683D-01 0.694D-01 0.631D-01-0.143D+00-0.128D+00 0.413D+00
 Coeff:      0.162D+00-0.100D+01 0.239D+00 0.969D+00-0.619D-01-0.130D+01
 Coeff:     -0.151D+01 0.328D+01
 Gap=     0.325 Goal=   None    Shift=    1.000
 RMSDP=1.15D-07 MaxDP=3.34D-06 DE=-4.72D-10 OVMax= 0.00D+00

 Cycle  50  Pass 1  IDiag  1:
 E= -1064.74092575502     Delta-E=       -0.000000000302 Rises=F Damp=F
 DIIS: error= 9.38D-07 at cycle  50 NSaved=  20.
 NSaved=20 IEnMin=20 EnMin= -1064.74092575502     IErMin=20 ErrMin= 9.38D-07
 ErrMax= 9.38D-07 EMaxC= 1.00D-01 BMatC= 6.23D-11 BMatP= 1.09D-10
 IDIUse=1 WtCom= 1.00D+00 WtEn= 0.00D+00
 Coeff-Com: -0.526D-03 0.292D-02-0.668D-02-0.472D-02 0.203D-01-0.842D-02
 Coeff-Com:  0.122D-01-0.744D-01 0.872D-01 0.751D-01-0.247D+00 0.487D-01
 Coeff-Com:  0.281D+00 0.119D+00-0.957D+00 0.533D+00 0.796D+00-0.933D-01
 Coeff-Com: -0.430D+01 0.472D+01
 Coeff:     -0.526D-03 0.292D-02-0.668D-02-0.472D-02 0.203D-01-0.842D-02
 Coeff:      0.122D-01-0.744D-01 0.872D-01 0.751D-01-0.247D+00 0.487D-01
 Coeff:      0.281D+00 0.119D+00-0.957D+00 0.533D+00 0.796D+00-0.933D-01
 Coeff:     -0.430D+01 0.472D+01
 Gap=     0.325 Goal=   None    Shift=    1.000
 RMSDP=8.77D-08 MaxDP=2.49D-06 DE=-3.02D-10 OVMax= 0.00D+00

 Cycle  51  Pass 1  IDiag  1:
 E= -1064.74092575516     Delta-E=       -0.000000000139 Rises=F Damp=F
 DIIS: error= 7.09D-07 at cycle  51 NSaved=  20.
 NSaved=20 IEnMin=20 EnMin= -1064.74092575516     IErMin=20 ErrMin= 7.09D-07
 ErrMax= 7.09D-07 EMaxC= 1.00D-01 BMatC= 3.59D-11 BMatP= 6.23D-11
 IDIUse=1 WtCom= 1.00D+00 WtEn= 0.00D+00
 Coeff-Com: -0.603D-03-0.929D-03 0.586D-02-0.700D-02-0.114D-01 0.408D-01
 Coeff-Com: -0.282D-01-0.452D-01 0.325D-01 0.106D+00 0.906D-02-0.436D+00
 Coeff-Com:  0.361D+00 0.495D+00-0.101D+01 0.121D-01 0.146D+01-0.109D+01
 Coeff-Com: -0.297D+01 0.407D+01
 Coeff:     -0.603D-03-0.929D-03 0.586D-02-0.700D-02-0.114D-01 0.408D-01
 Coeff:     -0.282D-01-0.452D-01 0.325D-01 0.106D+00 0.906D-02-0.436D+00
 Coeff:      0.361D+00 0.495D+00-0.101D+01 0.121D-01 0.146D+01-0.109D+01
 Coeff:     -0.297D+01 0.407D+01
 Gap=     0.325 Goal=   None    Shift=    1.000
 RMSDP=6.57D-08 MaxDP=1.88D-06 DE=-1.39D-10 OVMax= 0.00D+00

 Cycle  52  Pass 1  IDiag  1:
 E= -1064.74092575525     Delta-E=       -0.000000000090 Rises=F Damp=F
 DIIS: error= 5.38D-07 at cycle  52 NSaved=  20.
 NSaved=20 IEnMin=20 EnMin= -1064.74092575525     IErMin=20 ErrMin= 5.38D-07
 ErrMax= 5.38D-07 EMaxC= 1.00D-01 BMatC= 2.05D-11 BMatP= 3.59D-11
 IDIUse=1 WtCom= 1.00D+00 WtEn= 0.00D+00
 Large coefficients: NSaved= 20 BigCof=    0.00 CofMax=   10.00 Det=-6.76D-15
 Inversion failed.  Reducing to 19 matrices.
 Large coefficients: NSaved= 19 BigCof=    0.00 CofMax=   10.00 Det=-7.00D-15
 Inversion failed.  Reducing to 18 matrices.
 Large coefficients: NSaved= 18 BigCof=    0.00 CofMax=   10.00 Det=-7.48D-15
 Inversion failed.  Reducing to 17 matrices.
 Large coefficients: NSaved= 17 BigCof=    0.00 CofMax=   10.00 Det=-7.52D-15
 Inversion failed.  Reducing to 16 matrices.
 Large coefficients: NSaved= 16 BigCof=    0.00 CofMax=   10.00 Det=-7.95D-15
 Inversion failed.  Reducing to 15 matrices.
 Coeff-Com:  0.959D-02-0.303D-01-0.796D-02 0.599D-01 0.124D+00-0.386D+00
 Coeff-Com:  0.986D-01 0.299D+00 0.261D-01-0.610D+00 0.335D+00 0.821D+00
 Coeff-Com: -0.991D+00-0.244D+01 0.369D+01
 Coeff:      0.959D-02-0.303D-01-0.796D-02 0.599D-01 0.124D+00-0.386D+00
 Coeff:      0.986D-01 0.299D+00 0.261D-01-0.610D+00 0.335D+00 0.821D+00
 Coeff:     -0.991D+00-0.244D+01 0.369D+01
 Gap=     0.325 Goal=   None    Shift=    1.000
 RMSDP=4.91D-08 MaxDP=1.44D-06 DE=-9.05D-11 OVMax= 0.00D+00

 Cycle  53  Pass 1  IDiag  1:
 E= -1064.74092575533     Delta-E=       -0.000000000075 Rises=F Damp=F
 DIIS: error= 4.09D-07 at cycle  53 NSaved=  16.
 NSaved=16 IEnMin=16 EnMin= -1064.74092575533     IErMin=16 ErrMin= 4.09D-07
 ErrMax= 4.09D-07 EMaxC= 1.00D-01 BMatC= 1.16D-11 BMatP= 2.05D-11
 IDIUse=1 WtCom= 1.00D+00 WtEn= 0.00D+00
 Large coefficients: NSaved= 16 BigCof=    0.00 CofMax=   10.00 Det=-3.40D-15
 Inversion failed.  Reducing to 15 matrices.
 Coeff-Com: -0.229D-02 0.263D-01-0.659D-01 0.351D-01 0.416D-01 0.427D-01
 Coeff-Com: -0.344D+00 0.456D+00-0.155D+00-0.327D+00-0.873D-01 0.128D+01
 Coeff-Com: -0.388D+00-0.396D+01 0.445D+01
 Coeff:     -0.229D-02 0.263D-01-0.659D-01 0.351D-01 0.416D-01 0.427D-01
 Coeff:     -0.344D+00 0.456D+00-0.155D+00-0.327D+00-0.873D-01 0.128D+01
 Coeff:     -0.388D+00-0.396D+01 0.445D+01
 Gap=     0.325 Goal=   None    Shift=    1.000
 RMSDP=3.65D-08 MaxDP=1.10D-06 DE=-7.55D-11 OVMax= 0.00D+00

 Cycle  54  Pass 1  IDiag  1:
 E= -1064.74092575536     Delta-E=       -0.000000000034 Rises=F Damp=F
 DIIS: error= 3.11D-07 at cycle  54 NSaved=  16.
 NSaved=16 IEnMin=16 EnMin= -1064.74092575536     IErMin=16 ErrMin= 3.11D-07
 ErrMax= 3.11D-07 EMaxC= 1.00D-01 BMatC= 6.56D-12 BMatP= 1.16D-11
 IDIUse=1 WtCom= 1.00D+00 WtEn= 0.00D+00
 Large coefficients: NSaved= 16 BigCof=    0.00 CofMax=   10.00 Det=-1.66D-15
 Inversion failed.  Reducing to 15 matrices.
 Coeff-Com:  0.247D-02-0.157D-01 0.306D-01-0.330D-01 0.219D-01-0.159D-01
 Coeff-Com: -0.218D-01 0.105D+00-0.157D-01-0.493D+00 0.273D+00 0.112D+01
 Coeff-Com: -0.127D+01-0.249D+01 0.380D+01
 Coeff:      0.247D-02-0.157D-01 0.306D-01-0.330D-01 0.219D-01-0.159D-01
 Coeff:     -0.218D-01 0.105D+00-0.157D-01-0.493D+00 0.273D+00 0.112D+01
 Coeff:     -0.127D+01-0.249D+01 0.380D+01
 Gap=     0.325 Goal=   None    Shift=    1.000
 RMSDP=2.73D-08 MaxDP=8.19D-07 DE=-3.37D-11 OVMax= 0.00D+00

 Cycle  55  Pass 1  IDiag  1:
 E= -1064.74092575535     Delta-E=        0.000000000010 Rises=F Damp=F
 DIIS: error= 2.36D-07 at cycle  55 NSaved=  16.
 NSaved=16 IEnMin=15 EnMin= -1064.74092575536     IErMin=16 ErrMin= 2.36D-07
 ErrMax= 2.36D-07 EMaxC= 1.00D-01 BMatC= 3.67D-12 BMatP= 6.56D-12
 IDIUse=1 WtCom= 1.00D+00 WtEn= 0.00D+00
 Large coefficients: NSaved= 16 BigCof=    0.00 CofMax=   10.00 Det=-1.02D-15
 Inversion failed.  Reducing to 15 matrices.
 Coeff-Com: -0.357D-02 0.371D-01-0.672D-01-0.342D-01 0.138D+00-0.128D+00
 Coeff-Com:  0.593D-01 0.151D+00-0.165D+00-0.261D+00-0.847D-01 0.156D+01
 Coeff-Com: -0.128D+01-0.329D+01 0.437D+01
 Coeff:     -0.357D-02 0.371D-01-0.672D-01-0.342D-01 0.138D+00-0.128D+00
 Coeff:      0.593D-01 0.151D+00-0.165D+00-0.261D+00-0.847D-01 0.156D+01
 Coeff:     -0.128D+01-0.329D+01 0.437D+01
 Gap=     0.325 Goal=   None    Shift=    1.000
 RMSDP=2.03D-08 MaxDP=6.03D-07 DE= 1.00D-11 OVMax= 0.00D+00

 Cycle  56  Pass 1  IDiag  1:
 E= -1064.74092575539     Delta-E=       -0.000000000039 Rises=F Damp=F
 DIIS: error= 1.80D-07 at cycle  56 NSaved=  16.
 NSaved=16 IEnMin=16 EnMin= -1064.74092575539     IErMin=16 ErrMin= 1.80D-07
 ErrMax= 1.80D-07 EMaxC= 1.00D-01 BMatC= 2.07D-12 BMatP= 3.67D-12
 IDIUse=1 WtCom= 1.00D+00 WtEn= 0.00D+00
 Large coefficients: NSaved= 16 BigCof=    0.00 CofMax=   10.00 Det=-7.54D-16
 Inversion failed.  Reducing to 15 matrices.
 Coeff-Com: -0.398D-02 0.163D-01-0.301D-01 0.841D-02 0.481D-01-0.132D+00
 Coeff-Com: -0.135D-01 0.269D+00 0.317D+00-0.146D+01 0.967D+00 0.216D+01
 Coeff-Com: -0.318D+01-0.259D+01 0.463D+01
 Coeff:     -0.398D-02 0.163D-01-0.301D-01 0.841D-02 0.481D-01-0.132D+00
 Coeff:     -0.135D-01 0.269D+00 0.317D+00-0.146D+01 0.967D+00 0.216D+01
 Coeff:     -0.318D+01-0.259D+01 0.463D+01
 Gap=     0.325 Goal=   None    Shift=    1.000
 RMSDP=1.51D-08 MaxDP=4.42D-07 DE=-3.91D-11 OVMax= 0.00D+00

 Cycle  57  Pass 1  IDiag  1:
 E= -1064.74092575539     Delta-E=       -0.000000000001 Rises=F Damp=F
 DIIS: error= 1.37D-07 at cycle  57 NSaved=  16.
 NSaved=16 IEnMin=16 EnMin= -1064.74092575539     IErMin=16 ErrMin= 1.37D-07
 ErrMax= 1.37D-07 EMaxC= 1.00D-01 BMatC= 1.18D-12 BMatP= 2.07D-12
 IDIUse=1 WtCom= 1.00D+00 WtEn= 0.00D+00
 Large coefficients: NSaved= 16 BigCof=    0.00 CofMax=   10.00 Det=-2.97D-16
 Inversion failed.  Reducing to 15 matrices.
 Coeff-Com:  0.219D-02-0.821D-02-0.184D-01 0.828D-01-0.756D-01-0.706D-01
 Coeff-Com:  0.389D-01 0.342D+00-0.538D+00-0.110D-01 0.568D+00-0.679D-01
 Coeff-Com: -0.774D+00-0.164D+01 0.317D+01
 Coeff:      0.219D-02-0.821D-02-0.184D-01 0.828D-01-0.756D-01-0.706D-01
 Coeff:      0.389D-01 0.342D+00-0.538D+00-0.110D-01 0.568D+00-0.679D-01
 Coeff:     -0.774D+00-0.164D+01 0.317D+01
 Gap=     0.325 Goal=   None    Shift=    1.000
 RMSDP=1.16D-08 MaxDP=3.31D-07 DE=-1.36D-12 OVMax= 0.00D+00

 Cycle  58  Pass 1  IDiag  1:
 E= -1064.74092575538     Delta-E=        0.000000000012 Rises=F Damp=F
 DIIS: error= 1.05D-07 at cycle  58 NSaved=  16.
 NSaved=16 IEnMin=15 EnMin= -1064.74092575539     IErMin=16 ErrMin= 1.05D-07
 ErrMax= 1.05D-07 EMaxC= 1.00D-01 BMatC= 6.73D-13 BMatP= 1.18D-12
 IDIUse=1 WtCom= 1.00D+00 WtEn= 0.00D+00
 Large coefficients: NSaved= 16 BigCof=    0.00 CofMax=   10.00 Det=-2.97D-16
 Inversion failed.  Reducing to 15 matrices.
 Coeff-Com: -0.591D-02-0.221D-01 0.223D-01 0.688D-01 0.417D-01-0.231D+00
 Coeff-Com: -0.206D-01 0.470D+00-0.969D-01-0.129D+01 0.102D+01 0.199D+01
 Coeff-Com: -0.201D+01-0.459D+01 0.565D+01
 Coeff:     -0.591D-02-0.221D-01 0.223D-01 0.688D-01 0.417D-01-0.231D+00
 Coeff:     -0.206D-01 0.470D+00-0.969D-01-0.129D+01 0.102D+01 0.199D+01
 Coeff:     -0.201D+01-0.459D+01 0.565D+01
 Gap=     0.325 Goal=   None    Shift=    1.000
 RMSDP=9.04D-09 MaxDP=2.54D-07 DE= 1.18D-11 OVMax= 0.00D+00

 SCF Done:  E(RHF) =  -1064.74092576     A.U. after   58 cycles
             Convg  =    0.9036D-08             -V/T =  2.1027
 KE= 9.656158088014D+02 PE=-7.640062169949D+03 EE= 3.014848492348D+03
 Leave Link  502 at Tue Apr  8 18:24:25 2014, MaxMem= 3758096384 cpu:     203.8
 (Enter /global/apps/gaussian/09.c01/l601.exe)
 Copying SCF densities to generalized density rwf, IOpCl= 0 IROHF=0.

 **********************************************************************

            Population analysis using the SCF density.

 **********************************************************************

 Alpha  occ. eigenvalues --  -11.07701 -11.06865 -11.06632 -11.05247 -11.05089
 Alpha  occ. eigenvalues --  -11.05025 -11.05001 -11.04953 -11.04902 -11.04885
 Alpha  occ. eigenvalues --  -11.04720 -11.04368 -11.03792 -11.03595 -11.03569
 Alpha  occ. eigenvalues --  -11.03485 -11.02858 -11.02775 -11.02478 -11.02334
 Alpha  occ. eigenvalues --  -11.02176 -11.02092 -11.01577 -11.00704  -3.89482
 Alpha  occ. eigenvalues --   -2.48146  -2.47736  -2.46688  -1.11644  -1.09776
 Alpha  occ. eigenvalues --   -1.08044  -1.07479  -1.04093  -0.97451  -0.97356
 Alpha  occ. eigenvalues --   -0.97071  -0.96141  -0.95513  -0.94343  -0.91237
 Alpha  occ. eigenvalues --   -0.88797  -0.87950  -0.86214  -0.84515  -0.83529
 Alpha  occ. eigenvalues --   -0.80226  -0.79436  -0.79102  -0.77434  -0.75601
 Alpha  occ. eigenvalues --   -0.73326  -0.69890  -0.68447  -0.67125  -0.65842
 Alpha  occ. eigenvalues --   -0.63327  -0.61626  -0.60880  -0.59924  -0.59435
 Alpha  occ. eigenvalues --   -0.58620  -0.57793  -0.56963  -0.56613  -0.55658
 Alpha  occ. eigenvalues --   -0.55233  -0.54709  -0.54125  -0.53950  -0.53858
 Alpha  occ. eigenvalues --   -0.53531  -0.53036  -0.52926  -0.52348  -0.51625
 Alpha  occ. eigenvalues --   -0.51211  -0.49330  -0.48756  -0.47754  -0.46657
 Alpha  occ. eigenvalues --   -0.46291  -0.45737  -0.45068  -0.44456  -0.44174
 Alpha  occ. eigenvalues --   -0.44016  -0.43236  -0.42742  -0.41729  -0.40543
 Alpha  occ. eigenvalues --   -0.37601  -0.36216  -0.34332  -0.33807  -0.31527
 Alpha  occ. eigenvalues --   -0.29710  -0.29553  -0.28910  -0.28670  -0.27865
 Alpha  occ. eigenvalues --   -0.27607  -0.27259  -0.26289  -0.23785
 Alpha virt. eigenvalues --    0.08699   0.18297   0.20595   0.23208   0.23855
 Alpha virt. eigenvalues --    0.25089   0.25825   0.26286   0.26762   0.27310
 Alpha virt. eigenvalues --    0.30006   0.32497   0.34268   0.37860   0.39190
 Alpha virt. eigenvalues --    0.42873   0.44211   0.45862   0.49775   0.52661
 Alpha virt. eigenvalues --    0.57773   0.60794   0.64642   0.66654   0.66952
 Alpha virt. eigenvalues --    0.67483   0.67865   0.68351   0.70193   0.70488
 Alpha virt. eigenvalues --    0.70581   0.71054   0.71400   0.71648   0.71926
 Alpha virt. eigenvalues --    0.72144   0.72609   0.72956   0.73918   0.74470
 Alpha virt. eigenvalues --    0.75190   0.75366   0.75798   0.75867   0.76200
 Alpha virt. eigenvalues --    0.76618   0.76881   0.77094   0.78969   0.80289
 Alpha virt. eigenvalues --    0.83756   0.83828   0.84508   0.87648   0.88449
 Alpha virt. eigenvalues --    0.89405   0.90586   0.90649   0.91511   0.92688
 Alpha virt. eigenvalues --    0.93996   0.94058   0.95568   0.96194   0.99798
 Alpha virt. eigenvalues --    1.04372   1.04651   1.06631   1.13699   1.13867
 Alpha virt. eigenvalues --    1.14942
          Condensed to atoms (all electrons):
 Mulliken atomic charges:
              1
     1  H    0.078504
     2  C   -0.052981
     3  C   -0.071626
     4  H    0.078914
     5  C   -0.017091
     6  H    0.092431
     7  C   -0.124105
     8  C   -0.042446
     9  H    0.069773
    10  C   -0.076280
    11  H    0.073345
    12  P    0.153971
[...]
 Coeff:      0.255D-02-0.144D+00 0.318D+00 0.823D+00
 Gap=     0.092 Goal=   None    Shift=    0.200
 RMSDP=5.78D-05 MaxDP=2.10D-03 DE=-6.92D-04 OVMax= 1.75D-03

 Cycle   5  Pass 1  IDiag  1:
 E= -1083.81283588837     Delta-E=       -0.000104548139 Rises=F Damp=F
 DIIS: error= 2.01D-04 at cycle   5 NSaved=   5.
 NSaved= 5 IEnMin= 5 EnMin= -1083.81283588837     IErMin= 5 ErrMin= 2.01D-04
 ErrMax= 2.01D-04 EMaxC= 1.00D-01 BMatC= 2.23D-05 BMatP= 7.32D-05
 IDIUse=3 WtCom= 9.98D-01 WtEn= 2.01D-03
 Coeff-Com:  0.111D-01-0.137D+00 0.164D+00 0.445D+00 0.517D+00
 Coeff-En:   0.000D+00 0.000D+00 0.000D+00 0.000D+00 0.100D+01
 Coeff:      0.111D-01-0.137D+00 0.164D+00 0.444D+00 0.518D+00
 Gap=     0.092 Goal=   None    Shift=    0.200
 RMSDP=2.41D-05 MaxDP=9.82D-04 DE=-1.05D-04 OVMax= 1.05D-03

 Cycle   6  Pass 1  IDiag  1:
 E= -1083.81286543725     Delta-E=       -0.000029548887 Rises=F Damp=F
 DIIS: error= 6.13D-05 at cycle   6 NSaved=   6.
 NSaved= 6 IEnMin= 6 EnMin= -1083.81286543725     IErMin= 6 ErrMin= 6.13D-05
 ErrMax= 6.13D-05 EMaxC= 1.00D-01 BMatC= 1.98D-06 BMatP= 2.23D-05
 IDIUse=1 WtCom= 1.00D+00 WtEn= 0.00D+00
 Coeff-Com:  0.662D-02-0.687D-01 0.628D-01 0.174D+00 0.196D+00 0.629D+00
 Coeff:      0.662D-02-0.687D-01 0.628D-01 0.174D+00 0.196D+00 0.629D+00
 Gap=     0.092 Goal=   None    Shift=    0.200
 RMSDP=1.10D-05 MaxDP=3.04D-04 DE=-2.95D-05 OVMax= 5.44D-04

 Cycle   7  Pass 1  IDiag  1:
 E= -1083.81286930860     Delta-E=       -0.000003871343 Rises=F Damp=F
 DIIS: error= 2.39D-05 at cycle   7 NSaved=   7.
 NSaved= 7 IEnMin= 7 EnMin= -1083.81286930860     IErMin= 7 ErrMin= 2.39D-05
 ErrMax= 2.39D-05 EMaxC= 1.00D-01 BMatC= 2.32D-07 BMatP= 1.98D-06
 IDIUse=1 WtCom= 1.00D+00 WtEn= 0.00D+00
 Coeff-Com:  0.119D-02-0.704D-02-0.465D-02-0.122D-01 0.639D-02 0.194D+00
 Coeff-Com:  0.822D+00
 Coeff:      0.119D-02-0.704D-02-0.465D-02-0.122D-01 0.639D-02 0.194D+00
 Coeff:      0.822D+00
 Gap=     0.092 Goal=   None    Shift=    0.200
 RMSDP=4.38D-06 MaxDP=1.29D-04 DE=-3.87D-06 OVMax= 2.89D-04

 Cycle   8  Pass 1  IDiag  1:
 E= -1083.81286997807     Delta-E=       -0.000000669470 Rises=F Damp=F
 DIIS: error= 1.10D-05 at cycle   8 NSaved=   8.
 NSaved= 8 IEnMin= 8 EnMin= -1083.81286997807     IErMin= 8 ErrMin= 1.10D-05
 ErrMax= 1.10D-05 EMaxC= 1.00D-01 BMatC= 3.91D-08 BMatP= 2.32D-07
 IDIUse=1 WtCom= 1.00D+00 WtEn= 0.00D+00
 Coeff-Com: -0.339D-03 0.630D-02-0.126D-01-0.321D-01-0.248D-01 0.282D-01
 Coeff-Com:  0.197D+00 0.839D+00
 Coeff:     -0.339D-03 0.630D-02-0.126D-01-0.321D-01-0.248D-01 0.282D-01
 Coeff:      0.197D+00 0.839D+00
 Gap=     0.092 Goal=   None    Shift=    0.200
 RMSDP=2.06D-06 MaxDP=5.65D-05 DE=-6.69D-07 OVMax= 1.74D-04

 Cycle   9  Pass 1  IDiag  1:
 E= -1083.81287015059     Delta-E=       -0.000000172525 Rises=F Damp=F
 DIIS: error= 6.78D-06 at cycle   9 NSaved=   9.
 NSaved= 9 IEnMin= 9 EnMin= -1083.81287015059     IErMin= 9 ErrMin= 6.78D-06
 ErrMax= 6.78D-06 EMaxC= 1.00D-01 BMatC= 1.00D-08 BMatP= 3.91D-08
 IDIUse=1 WtCom= 1.00D+00 WtEn= 0.00D+00
 Coeff-Com: -0.402D-03 0.508D-02-0.738D-02-0.169D-01-0.157D-01-0.211D-01
 Coeff-Com: -0.378D-01 0.261D+00 0.833D+00
 Coeff:     -0.402D-03 0.508D-02-0.738D-02-0.169D-01-0.157D-01-0.211D-01
 Coeff:     -0.378D-01 0.261D+00 0.833D+00
 Gap=     0.092 Goal=   None    Shift=    0.200
 RMSDP=1.17D-06 MaxDP=3.34D-05 DE=-1.73D-07 OVMax= 1.11D-04

 Cycle  10  Pass 1  IDiag  1:
 E= -1083.81287020503     Delta-E=       -0.000000054435 Rises=F Damp=F
 DIIS: error= 3.96D-06 at cycle  10 NSaved=  10.
 NSaved=10 IEnMin=10 EnMin= -1083.81287020503     IErMin=10 ErrMin= 3.96D-06
 ErrMax= 3.96D-06 EMaxC= 1.00D-01 BMatC= 2.59D-09 BMatP= 1.00D-08
 IDIUse=1 WtCom= 1.00D+00 WtEn= 0.00D+00
 Coeff-Com: -0.156D-03 0.157D-02-0.146D-02-0.232D-02-0.330D-02-0.254D-01
 Coeff-Com: -0.748D-01-0.865D-01 0.208D+00 0.985D+00
 Coeff:     -0.156D-03 0.157D-02-0.146D-02-0.232D-02-0.330D-02-0.254D-01
 Coeff:     -0.748D-01-0.865D-01 0.208D+00 0.985D+00
 Gap=     0.092 Goal=   None    Shift=    0.200
 RMSDP=6.37D-07 MaxDP=1.83D-05 DE=-5.44D-08 OVMax= 6.84D-05

 Cycle  11  Pass 1  IDiag  1:
 E= -1083.81287022304     Delta-E=       -0.000000018012 Rises=F Damp=F
 DIIS: error= 2.43D-06 at cycle  11 NSaved=  11.
 NSaved=11 IEnMin=11 EnMin= -1083.81287022304     IErMin=11 ErrMin= 2.43D-06
 ErrMax= 2.43D-06 EMaxC= 1.00D-01 BMatC= 9.06D-10 BMatP= 2.59D-09
 IDIUse=1 WtCom= 1.00D+00 WtEn= 0.00D+00
 Coeff-Com: -0.345D-06-0.263D-03 0.107D-02 0.299D-02 0.689D-03-0.136D-01
 Coeff-Com: -0.423D-01-0.142D+00-0.923D-01 0.332D+00 0.954D+00
 Coeff:     -0.345D-06-0.263D-03 0.107D-02 0.299D-02 0.689D-03-0.136D-01
 Coeff:     -0.423D-01-0.142D+00-0.923D-01 0.332D+00 0.954D+00
 Gap=     0.092 Goal=   None    Shift=    0.200
 RMSDP=3.72D-07 MaxDP=1.05D-05 DE=-1.80D-08 OVMax= 4.43D-05

 Cycle  12  Pass 1  IDiag  1:
 E= -1083.81287022963     Delta-E=       -0.000000006589 Rises=F Damp=F
 DIIS: error= 1.54D-06 at cycle  12 NSaved=  12.
 NSaved=12 IEnMin=12 EnMin= -1083.81287022963     IErMin=12 ErrMin= 1.54D-06
 ErrMax= 1.54D-06 EMaxC= 1.00D-01 BMatC= 3.28D-10 BMatP= 9.06D-10
 IDIUse=1 WtCom= 1.00D+00 WtEn= 0.00D+00
 Coeff-Com:  0.275D-04-0.485D-03 0.115D-02 0.252D-02 0.144D-03-0.286D-02
 Coeff-Com: -0.150D-01-0.807D-01-0.117D+00-0.353D-01 0.275D+00 0.973D+00
 Coeff:      0.275D-04-0.485D-03 0.115D-02 0.252D-02 0.144D-03-0.286D-02
 Coeff:     -0.150D-01-0.807D-01-0.117D+00-0.353D-01 0.275D+00 0.973D+00
 Gap=     0.092 Goal=   None    Shift=    0.200
 RMSDP=2.27D-07 MaxDP=6.70D-06 DE=-6.59D-09 OVMax= 2.83D-05

 Cycle  13  Pass 1  IDiag  1:
 E= -1083.81287023206     Delta-E=       -0.000000002437 Rises=F Damp=F
 DIIS: error= 1.04D-06 at cycle  13 NSaved=  13.
 NSaved=13 IEnMin=13 EnMin= -1083.81287023206     IErMin=13 ErrMin= 1.04D-06
 ErrMax= 1.04D-06 EMaxC= 1.00D-01 BMatC= 1.18D-10 BMatP= 3.28D-10
 IDIUse=1 WtCom= 1.00D+00 WtEn= 0.00D+00
 Coeff-Com:  0.138D-04-0.222D-03 0.521D-03 0.767D-03-0.316D-03 0.225D-02
 Coeff-Com: -0.108D-02-0.154D-01-0.521D-01-0.140D+00-0.122D+00 0.164D+00
 Coeff-Com:  0.116D+01
 Coeff:      0.138D-04-0.222D-03 0.521D-03 0.767D-03-0.316D-03 0.225D-02
 Coeff:     -0.108D-02-0.154D-01-0.521D-01-0.140D+00-0.122D+00 0.164D+00
 Coeff:      0.116D+01
 Gap=     0.092 Goal=   None    Shift=    0.200
 RMSDP=1.40D-07 MaxDP=4.21D-06 DE=-2.44D-09 OVMax= 1.82D-05

 Cycle  14  Pass 1  IDiag  1:
 E= -1083.81287023302     Delta-E=       -0.000000000956 Rises=F Damp=F
 DIIS: error= 7.06D-07 at cycle  14 NSaved=  14.
 NSaved=14 IEnMin=14 EnMin= -1083.81287023302     IErMin=14 ErrMin= 7.06D-07
 ErrMax= 7.06D-07 EMaxC= 1.00D-01 BMatC= 4.12D-11 BMatP= 1.18D-10
 IDIUse=1 WtCom= 1.00D+00 WtEn= 0.00D+00
 Coeff-Com:  0.223D-05-0.246D-04 0.455D-04-0.147D-03 0.418D-04 0.216D-02
 Coeff-Com:  0.343D-02 0.119D-01-0.393D-02-0.103D+00-0.170D+00-0.242D+00
 Coeff-Com:  0.326D+00 0.117D+01
 Coeff:      0.223D-05-0.246D-04 0.455D-04-0.147D-03 0.418D-04 0.216D-02
 Coeff:      0.343D-02 0.119D-01-0.393D-02-0.103D+00-0.170D+00-0.242D+00
 Coeff:      0.326D+00 0.117D+01
 Gap=     0.092 Goal=   None    Shift=    0.200
 RMSDP=8.65D-08 MaxDP=2.60D-06 DE=-9.56D-10 OVMax= 1.17D-05

 Cycle  15  Pass 1  IDiag  1:
 E= -1083.81287023342     Delta-E=       -0.000000000397 Rises=F Damp=F
 DIIS: error= 4.70D-07 at cycle  15 NSaved=  15.
 NSaved=15 IEnMin=15 EnMin= -1083.81287023342     IErMin=15 ErrMin= 4.70D-07
 ErrMax= 4.70D-07 EMaxC= 1.00D-01 BMatC= 1.63D-11 BMatP= 4.12D-11
 IDIUse=1 WtCom= 1.00D+00 WtEn= 0.00D+00
 Coeff-Com: -0.109D-05 0.334D-04-0.120D-03-0.275D-03 0.264D-03 0.106D-02
 Coeff-Com:  0.401D-02 0.138D-01 0.838D-02-0.495D-01-0.108D+00-0.243D+00
 Coeff-Com: -0.101D+00 0.442D+00 0.103D+01
 Coeff:     -0.109D-05 0.334D-04-0.120D-03-0.275D-03 0.264D-03 0.106D-02
 Coeff:      0.401D-02 0.138D-01 0.838D-02-0.495D-01-0.108D+00-0.243D+00
 Coeff:     -0.101D+00 0.442D+00 0.103D+01
 Gap=     0.092 Goal=   None    Shift=    0.200
 RMSDP=5.49D-08 MaxDP=1.63D-06 DE=-3.97D-10 OVMax= 7.57D-06

 Cycle  16  Pass 1  IDiag  1:
 E= -1083.81287023358     Delta-E=       -0.000000000162 Rises=F Damp=F
 DIIS: error= 3.14D-07 at cycle  16 NSaved=  16.
 NSaved=16 IEnMin=16 EnMin= -1083.81287023358     IErMin=16 ErrMin= 3.14D-07
 ErrMax= 3.14D-07 EMaxC= 1.00D-01 BMatC= 6.72D-12 BMatP= 1.63D-11
 IDIUse=1 WtCom= 1.00D+00 WtEn= 0.00D+00
 Coeff-Com: -0.959D-06 0.286D-04-0.119D-03-0.101D-03 0.230D-03 0.741D-04
 Coeff-Com:  0.226D-02 0.686D-02 0.651D-02-0.300D-02-0.321D-01-0.102D+00
 Coeff-Com: -0.219D+00-0.165D+00 0.322D+00 0.118D+01
 Coeff:     -0.959D-06 0.286D-04-0.119D-03-0.101D-03 0.230D-03 0.741D-04
 Coeff:      0.226D-02 0.686D-02 0.651D-02-0.300D-02-0.321D-01-0.102D+00
 Coeff:     -0.219D+00-0.165D+00 0.322D+00 0.118D+01
 Gap=     0.092 Goal=   None    Shift=    0.200
 RMSDP=3.50D-08 MaxDP=1.01D-06 DE=-1.62D-10 OVMax= 4.92D-06

 Cycle  17  Pass 1  IDiag  1:
 E= -1083.81287023366     Delta-E=       -0.000000000079 Rises=F Damp=F
 DIIS: error= 2.10D-07 at cycle  17 NSaved=  17.
 NSaved=17 IEnMin=17 EnMin= -1083.81287023366     IErMin=17 ErrMin= 2.10D-07
 ErrMax= 2.10D-07 EMaxC= 1.00D-01 BMatC= 2.88D-12 BMatP= 6.72D-12
 IDIUse=1 WtCom= 1.00D+00 WtEn= 0.00D+00
 Coeff-Com: -0.565D-06 0.169D-04-0.754D-04-0.155D-04 0.933D-04-0.119D-03
 Coeff-Com:  0.919D-03 0.258D-02 0.407D-02 0.123D-01 0.139D-02-0.263D-01
 Coeff-Com: -0.174D+00-0.268D+00-0.775D-01 0.549D+00 0.976D+00
 Coeff:     -0.565D-06 0.169D-04-0.754D-04-0.155D-04 0.933D-04-0.119D-03
 Coeff:      0.919D-03 0.258D-02 0.407D-02 0.123D-01 0.139D-02-0.263D-01
 Coeff:     -0.174D+00-0.268D+00-0.775D-01 0.549D+00 0.976D+00
 Gap=     0.092 Goal=   None    Shift=    0.200
 RMSDP=2.24D-08 MaxDP=6.53D-07 DE=-7.91D-11 OVMax= 3.20D-06

 Cycle  18  Pass 1  IDiag  1:
 E= -1083.81287023368     Delta-E=       -0.000000000024 Rises=F Damp=F
 DIIS: error= 1.41D-07 at cycle  18 NSaved=  18.
 NSaved=18 IEnMin=18 EnMin= -1083.81287023368     IErMin=18 ErrMin= 1.41D-07
 ErrMax= 1.41D-07 EMaxC= 1.00D-01 BMatC= 1.24D-12 BMatP= 2.88D-12
 IDIUse=1 WtCom= 1.00D+00 WtEn= 0.00D+00
 Coeff-Com: -0.340D-06 0.739D-05-0.261D-04-0.523D-05-0.400D-04 0.291D-06
 Coeff-Com:  0.610D-04 0.583D-03 0.259D-02 0.107D-01 0.981D-02 0.908D-02
 Coeff-Com: -0.749D-01-0.161D+00-0.205D+00-0.920D-01 0.353D+00 0.115D+01
 Coeff:     -0.340D-06 0.739D-05-0.261D-04-0.523D-05-0.400D-04 0.291D-06
 Coeff:      0.610D-04 0.583D-03 0.259D-02 0.107D-01 0.981D-02 0.908D-02
 Coeff:     -0.749D-01-0.161D+00-0.205D+00-0.920D-01 0.353D+00 0.115D+01
 Gap=     0.092 Goal=   None    Shift=    0.200
 RMSDP=1.46D-08 MaxDP=4.19D-07 DE=-2.36D-11 OVMax= 2.08D-06

 Cycle  19  Pass 1  IDiag  1:
 E= -1083.81287023368     Delta-E=        0.000000000001 Rises=F Damp=F
 DIIS: error= 9.59D-08 at cycle  19 NSaved=  19.
 NSaved=19 IEnMin=18 EnMin= -1083.81287023368     IErMin=19 ErrMin= 9.59D-08
 ErrMax= 9.59D-08 EMaxC= 1.00D-01 BMatC= 4.98D-13 BMatP= 1.24D-12
 IDIUse=1 WtCom= 1.00D+00 WtEn= 0.00D+00
 Coeff-Com: -0.118D-06 0.562D-06 0.621D-05-0.112D-04-0.552D-04 0.215D-04
 Coeff-Com: -0.273D-03-0.331D-03 0.112D-02 0.554D-02 0.883D-02 0.179D-01
 Coeff-Com: -0.764D-02-0.438D-01-0.143D+00-0.321D+00-0.812D-01 0.298D+00
 Coeff-Com:  0.127D+01
 Coeff:     -0.118D-06 0.562D-06 0.621D-05-0.112D-04-0.552D-04 0.215D-04
 Coeff:     -0.273D-03-0.331D-03 0.112D-02 0.554D-02 0.883D-02 0.179D-01
 Coeff:     -0.764D-02-0.438D-01-0.143D+00-0.321D+00-0.812D-01 0.298D+00
 Coeff:      0.127D+01
 Gap=     0.092 Goal=   None    Shift=    0.200
 RMSDP=9.42D-09 MaxDP=2.66D-07 DE= 1.36D-12 OVMax= 1.36D-06

 SCF Done:  E(RO-LYP) =  -1083.81287023     A.U. after   19 cycles
             Convg  =    0.9424D-08             -V/T =  2.1038
 KE= 9.818744615265D+02 PE=-7.496998700710D+03 EE= 2.922054489996D+03
 Leave Link  502 at Tue Apr  8 18:52:25 2014, MaxMem= 3758096384 cpu:    1001.2
 (Enter /global/apps/gaussian/09.c01/l701.exe)
 Compute integral first derivatives.
 ... and contract with generalized density number  0.
   1 Symmetry operations used in ECPInt.
 ECPInt:  NShTT=   20100 NPrTT=  133651 LenC2=   17956 LenP2D=   66497.
 LDataN:  DoStor=T MaxTD1= 6 Len=  172
 Leave Link  701 at Tue Apr  8 18:52:26 2014, MaxMem= 3758096384 cpu:      19.7
 (Enter /global/apps/gaussian/09.c01/l702.exe)
 L702 exits ... SP integral derivatives will be done elsewhere.
 Leave Link  702 at Tue Apr  8 18:52:26 2014, MaxMem= 3758096384 cpu:       0.3
 (Enter /global/apps/gaussian/09.c01/l703.exe)
 Compute integral first derivatives, UseDBF=F ICtDFT=           0.
 Integral derivatives from FoFDir, PRISM(SPDF).
 Calling FoFJK, ICntrl=      2527 FMM=F ISym2X=0 I1Cent= 0 IOpClX= 0 NMat=1 NMatS=1 NMatT=0.
 FoFCou: FMM=F IPFlag=           0 FMFlag=      100000 FMFlg1=         800
         NFxFlg=           0 DoJE=F BraDBF=F KetDBF=F FulRan=T
         Omega=  0.000000  0.000000  1.000000  0.000000  0.000000 ICntrl=    2527 IOpCl=  0
         NMat0=    1 NMatS0=    1 NMatT0=    0 NMatD0=    1 NMtDS0=    0 NMtDT0=    0
         I1Cent=           0 NGrid=           0.
 Symmetry not used in FoFCou.
 Defaulting to unpruned grid for atomic number  46.
 Defaulting to unpruned grid for atomic number  46.
 Defaulting to unpruned grid for atomic number  46.
 Defaulting to unpruned grid for atomic number  46.
 Defaulting to unpruned grid for atomic number  46.
 Defaulting to unpruned grid for atomic number  46.
 Defaulting to unpruned grid for atomic number  46.
 Defaulting to unpruned grid for atomic number  46.
 Defaulting to unpruned grid for atomic number  46.
 Defaulting to unpruned grid for atomic number  46.
 Defaulting to unpruned grid for atomic number  46.
 Defaulting to unpruned grid for atomic number  46.
 Defaulting to unpruned grid for atomic number  46.
 Defaulting to unpruned grid for atomic number  46.
 Defaulting to unpruned grid for atomic number  46.
 Defaulting to unpruned grid for atomic number  46.
 Leave Link  703 at Tue Apr  8 18:52:34 2014, MaxMem= 3758096384 cpu:     116.3
 (Enter /global/apps/gaussian/09.c01/l716.exe)
 Dipole        =-2.20309044D+00-6.10094525D-01-6.86769527D-01
 -------------------------------------------------------------------
 Center     Atomic                   Forces (Hartrees/Bohr)
 Number     Number              X              Y              Z
 -------------------------------------------------------------------
      1        1           0.000039975   -0.000099966   -0.000081062
      2        6           0.000028240    0.000041834    0.000020000
      3        6          -0.000335064    0.000058330    0.000025733
      4        1           0.000176355   -0.000031773    0.000002931
      5        6           0.000087411   -0.000215818    0.000920766
      6        1          -0.000021057    0.000139719    0.000095186
      7        6          -0.000762123    0.002620957   -0.000035919
      8        6           0.000288460   -0.000327036   -0.000883798
      9        1           0.000274075   -0.000622140   -0.001122314
     10        6           0.000214394    0.000209029    0.000465561
     11        1          -0.000100315   -0.000107016   -0.000012047
     12       15          -0.001216320   -0.000545802    0.002912008
     13        6           0.001453394   -0.001573807   -0.000181000
     14        6          -0.000996117    0.000409758   -0.000220746
     15        1           0.000009135   -0.000734834    0.000160149
     16        6          -0.000566541   -0.000060199    0.000433178
     17        1           0.000143551    0.000068460    0.000049768
     18        6           0.000310753    0.000385042   -0.000414244
     19        1          -0.000084952    0.000030660    0.000187253
     20        6          -0.000025031   -0.000411629   -0.000458304
     21        1          -0.000044449   -0.000167966    0.000132419
     22        6           0.000548234    0.000495862    0.000519075
     23        1           0.000051156    0.000023658    0.000846733
     24        6           0.000926333   -0.000002326   -0.002047911
     25        1           0.000402525    0.000158684   -0.000149106
     26        1          -0.000562706   -0.000212244   -0.000014697
     27        1           0.000286577    0.000465929    0.000732500
     28       46           0.003612315   -0.004178593    0.002780129
     29       17          -0.002108689    0.000815768    0.000442842
     30        6           0.000471392    0.001306302   -0.001996957
     31        6           0.000251457    0.000490237   -0.000060636
     32        1           0.000081768    0.000785912    0.000588867
     33        6          -0.000430945   -0.000139660    0.000230088
     34        1           0.000009097    0.000024725   -0.000151253
     35        6          -0.000058955   -0.000278917   -0.000285682
     36        1           0.000133642    0.000065665    0.000136355
     37        6          -0.000153179    0.000311725   -0.000395935
     38        1          -0.000072869    0.000024183    0.000099041
     39        6           0.000498576   -0.000430963    0.001676868
     40        1          -0.000138586    0.000072380    0.000208572
     41        6          -0.002944272    0.002300445    0.002529319
     42        1          -0.001344804   -0.000690649   -0.000739938
     43        1           0.000124136    0.002067931    0.002208459
     44        6           0.001737956   -0.003448718   -0.005683789
     45        1          -0.000303601    0.003103490   -0.002454289
     46       50          -0.000261434   -0.002670305    0.000565609
     47        6           0.000272859   -0.000095757    0.000191824
     48        1          -0.000092062   -0.000076272   -0.000116700
     49        1          -0.000048614    0.000124268    0.000268831
     50        1          -0.000166904    0.000190212   -0.000282442
     51        6           0.000629255   -0.000069048   -0.000357105
     52        1           0.000077553   -0.000128701   -0.000010637
     53        1          -0.000326607   -0.000096201   -0.000195177
     54        1          -0.000585723   -0.000106473   -0.001270817
     55        6          -0.001527993    0.000415942   -0.001502369
     56        1           0.000712597    0.000600104    0.000419328
     57        1           0.001263694    0.000512678    0.000683716
     58        1           0.000163048   -0.000797077    0.000591768
 -------------------------------------------------------------------
 Cartesian Forces:  Max     0.005683789 RMS     0.001092120
 Leave Link  716 at Tue Apr  8 18:52:34 2014, MaxMem= 3758096384 cpu:       0.3
 (Enter /global/apps/gaussian/09.c01/l103.exe)

 GradGradGradGradGradGradGradGradGradGradGradGradGradGradGradGradGradGrad
 Berny optimization.
 Eigenvalue   169 is   1.25D-06 should be less than     0.000000 Eigenvector:
                          D98       D97       A8        A16       A82
   1                   -0.53973   0.53973  -0.20452   0.17042  -0.14738
                          A5        A40       A32       A7        A9
   1                   -0.14542  -0.12623   0.12621   0.11482   0.11475
 Eigenvalue   170 is   6.28D-07 should be less than     0.000000 Eigenvector:
                          A4        A6        A5        A16       A17
   1                    0.42445   0.42442   0.33290  -0.28570  -0.24648
                          A18       A2        A1        A10       D98
   1                   -0.24647   0.20951   0.20950   0.16314  -0.15259
 Eigenvalue   171 is   2.52D-07 should be less than     0.000000 Eigenvector:
                          A6        A4        A3        D97       D98
   1                    0.32154   0.32150  -0.29636  -0.26898   0.26898
                          A40       A32       A27       A35       A8
   1                   -0.20190   0.20189  -0.19617   0.19589  -0.19381
 NTrRot=    -1 NTRed=   343 NAtoms=    58 NSkip=   175 IsLin=F
 Error in internal coordinate system.
 Error termination via Lnk1e in /global/apps/gaussian/09.c01/l103.exe at Tue Apr  8 18:52:34 2014.
 Job cpu time:  0 days  5 hours 17 minutes 23.5 seconds.
 File lengths (MBytes):  RWF=    889 Int=      0 D2E=      0 Chk=     21 Scr=      1
