 argument  1 = dnRun_Stallo-1_M00000037_X.nw
                                         
                                         
 
 
              Northwest Computational Chemistry Package (NWChem) 6.5
              ------------------------------------------------------
 
 
                    Environmental Molecular Sciences Laboratory
                       Pacific Northwest National Laboratory
                                Richland, WA 99352
 
                              Copyright (c) 1994-2014
                       Pacific Northwest National Laboratory
                            Battelle Memorial Institute
 
             NWChem is an open-source computational chemistry package
                        distributed under the terms of the
                      Educational Community License (ECL) 2.0
             A copy of the license is included with this distribution
                              in the LICENSE.TXT file
 
                                  ACKNOWLEDGMENT
                                  --------------

            This software and its documentation were developed at the
            EMSL at Pacific Northwest National Laboratory, a multiprogram
            national laboratory, operated for the U.S. Department of Energy
            by Battelle under Contract Number DE-AC05-76RL01830. Support
            for this work was provided by the Department of Energy Office
            of Biological and Environmental Research, Office of Basic
            Energy Sciences, and the Office of Advanced Scientific Computing.


           Job information
           ---------------

    hostname        = cb100-18.local
    program         = nwchem
    date            = Thu Apr 27 15:04:47 2017

    compiled        = Wed_Feb_11_11:50:10_2015
    source          = /project/applicationdepot/nwchem/6.5_ic14
    nwchem branch   = 6.5
    nwchem revision = 26243
    ga revision     = 10506
    input           = dnRun_Stallo-1_M00000037_X.nw
    prefix          = dnRun_Stallo-1_M00000037_X.
    data base       = ./dnRun_Stallo-1_M00000037_X.db
    status          = restart
    nproc           =      160
    time left       =     -1s



           Memory information
           ------------------

    heap     =   56360956 doubles =    430.0 Mbytes
    stack    =   56360961 doubles =    430.0 Mbytes
    global   =  112721920 doubles =    860.0 Mbytes (distinct from heap & stack)
    total    =  225443837 doubles =   1720.0 Mbytes
    verify   = yes
    hardfail = no 


           Directory information
           ---------------------
 
  0 permanent = .
  0 scratch   = /global/work/marcof/287556/dnRun_Stallo-1_M00000037_X
 
 
           Previous task information
           -------------------------

    Theory    = dft                             
    Operation = saddle                        
    Status    = fail                          
    Qmmm      = F
    Ignore    = F

 
           Geometries in the database
           --------------------------
 
       Name                              Natoms  Last Modified
       --------------------------------  ------  ------------------------
    1  driverinitial                         47  Thu Apr 27 09:32:57 2017  
    2  geometry                              47  Thu Apr 27 15:02:59 2017  
 
  The geometry named "geometry" is the default for restart
 
 
 
           Basis sets in the database
           --------------------------
 
       Name                              Natoms  Last Modified
        --------------------------------  ------  ------------------------
    1  ao basis                              23  Wed Apr 26 20:46:15 2017  
    2  ecp basis                              3  Wed Apr 26 20:46:15 2017  
 
  The basis set named "ao basis" is the default AO basis for restart
 
 
 
 
                                NWChem Input Module
                                -------------------
 
 
 
  Deleted DRIVER restart files 
 
 Error Fix: calculation of Hessian+Frequencies Additional step 0 in       attempt to fix: Step4: sabble opt. - all free
 --------------------------------------------------------------------------------
 
 
                   NWChem Nuclear Hessian and Frequency Analysis
                   ---------------------------------------------
 
 
 
                              NWChem Analytic Hessian
                              -----------------------
 
  itol2e modified to match energy
  convergence criterion.
 
                                 NWChem DFT Module
                                 -----------------
 
 
 Error Fix: calculation of Hessian+Frequencies Additional step 0 in       attempt to fix: Step4: sabble opt. - all free
 
 


 Summary of "ao basis" -> "ao basis" (cartesian)
 ------------------------------------------------------------------------------
       Tag                 Description            Shells   Functions and Types
 ---------------- ------------------------------  ------  ---------------------
 H                        lanl2dz ecp                2        2   2s
 C                        lanl2dz ecp                5        9   3s2p
 N                        lanl2dz ecp                5        9   3s2p
 O                        lanl2dz ecp                5        9   3s2p
 C1                      user specified              6       15   3s2p1d
 H2                      user specified              3        5   2s1p
 H3                      user specified              3        5   2s1p
 H4                      user specified              3        5   2s1p
 C5                      user specified              6       15   3s2p1d
 H6                      user specified              3        5   2s1p
 Ru7                     user specified              8       24   3s3p2d
 C8                      user specified              6       15   3s2p1d
 Cl9                     user specified              5       14   2s2p1d
 Cl10                    user specified              5       14   2s2p1d
 C11                     user specified              6       15   3s2p1d
 C12                     user specified              6       15   3s2p1d
 H13                     user specified              3        5   2s1p
 H14                     user specified              3        5   2s1p
 H43                     user specified              3        5   2s1p
 C44                     user specified              6       15   3s2p1d
 H45                     user specified              3        5   2s1p
 H46                     user specified              3        5   2s1p
 H47                     user specified              3        5   2s1p


  Caching 1-el integrals 
 
            General Information
            -------------------
          SCF calculation type: DFT
          Wavefunction type:  closed shell.
          No. of atoms     :    47
          No. of electrons :   150
           Alpha electrons :    75
            Beta electrons :    75
          Charge           :     0
          Spin multiplicity:     1
          Use of symmetry is: off; symmetry adaption is: off
          Maximum number of iterations:  30
          This is a Direct SCF calculation.
          AO basis - number of functions:   311
                     number of shells:   167
          Convergence on energy requested: 1.00D-08
          Convergence on density requested: 1.00D-07
          Convergence on gradient requested: 1.00D-06
 
              XC Information
              --------------
                         PBE0 Method XC Functional
                     Hartree-Fock (Exact) Exchange  0.250          
          PerdewBurkeErnzerhof Exchange Functional  0.750          
            Perdew 1991 LDA Correlation Functional  1.000 local    
           PerdewBurkeErnz. Correlation Functional  1.000 non-local
 
             Grid Information
             ----------------
          Grid used for XC integration:  xfine     
          Radial quadrature: Mura-Knowles        
          Angular quadrature: Lebedev. 
          Tag              B.-S. Rad. Rad. Pts. Rad. Cut. Ang. Pts.
          ---              ---------- --------- --------- ---------
          C1                  0.70      100          18.0      1454
          H2                  0.35      100          15.0      1202
          H3                  0.35      100          16.0      1202
          H4                  0.35      100          16.0      1202
          C5                  0.70      100          16.0      1454
          H6                  0.35      100          16.0      1202
          Ru7                 1.30      205          15.0      1454
          C8                  0.70      100          17.0      1454
          Cl9                 1.00      125          15.0      1454
          Cl10                1.00      125          15.0      1454
          C11                 0.70      100          16.0      1454
          C12                 0.70      100          14.0      1454
          H13                 0.35      100          16.0      1202
          H14                 0.35      100          15.0      1202
          C15                 0.70      100          15.0      1454
          N16                 0.65      100          15.0      1454
          C17                 0.70      100          15.0      1454
          C18                 0.70      100          16.0      1454
          C19                 0.70      100          16.0      1454
          H20                 0.35      100          16.0      1202
          H21                 0.35      100          16.0      1202
          H22                 0.35      100          16.0      1202
          H23                 0.35      100          16.0      1202
          H24                 0.35      100          16.0      1202
          H25                 0.35      100          16.0      1202
          H26                 0.35      100          16.0      1202
          H27                 0.35      100          15.0      1202
          H28                 0.35      100          16.0      1202
          C29                 0.70      100          17.0      1454
          C30                 0.70      100          15.0      1454
          H31                 0.35      100          15.0      1202
          H32                 0.35      100          16.0      1202
          C33                 0.70      100          18.0      1454
          H34                 0.35      100          16.0      1202
          H35                 0.35      100          16.0      1202
          C36                 0.70      100          19.0      1454
          H37                 0.35      100          19.0      1202
          H38                 0.35      100          20.0      1202
          H39                 0.35      100          19.0      1202
          H40                 0.35      100          15.0      1202
          H41                 0.35      100          16.0      1202
          H42                 0.35      100          15.0      1202
          H43                 0.35      100          16.0      1202
          C44                 0.70      100          17.0      1454
          H45                 0.35      100          15.0      1202
          H46                 0.35      100          16.0      1202
          H47                 0.35      100          16.0      1202
          Grid pruning is: on 
          Number of quadrature shells:  4855
          Spatial weights used:  Erf1
 
          Convergence Information
          -----------------------
          Convergence aids based upon iterative change in 
          total energy or number of iterations. 
          Levelshifting, if invoked, occurs when the 
          HOMO/LUMO gap drops below (HL_TOL): 1.00D-02
          DIIS, if invoked, will attempt to extrapolate 
          using up to (NFOCK): 10 stored Fock matrices.

                    Damping( 0%)  Levelshifting(0.5)       DIIS
                  --------------- ------------------- ---------------
          dE  on:    start            ASAP                start   
          dE off:    2 iters         30 iters           150 iters 

 
      Screening Tolerance Information
      -------------------------------
          Density screening/tol_rho: 1.00D-11
          AO Gaussian exp screening on grid/accAOfunc:  18
          CD Gaussian exp screening on grid/accCDfunc:  20
          XC Gaussian exp screening on grid/accXCfunc:  20
          Schwarz screening/accCoul: 1.00D-09


 Loading old vectors from job with title :

Step4: sabble opt. - all free

   Time after variat. SCF:      1.1
   Time prior to 1st pass:      1.2
 Grid integrated density:     150.000005380019
 Requested integration accuracy:   0.10E-07

           Memory utilization after 1st SCF pass: 
           Heap Space remaining (MW):       56.20            56201580
          Stack Space remaining (MW):       56.36            56356780

   convergence    iter        energy       DeltaE   RMS-Dens  Diis-err    time
 ---------------- ----- ----------------- --------- --------- ---------  ------
 d= 0,ls=0.0,diis     1   -728.7666671912 -2.35D+03  1.57D-08  2.53D-12     4.9
 Grid integrated density:     150.000005380019
 Requested integration accuracy:   0.10E-07
 d= 0,ls=0.0,diis     2   -728.7666671912  4.55D-13  6.90D-09  6.66D-12     8.5


         Total DFT energy =     -728.766667191174
      One electron energy =    -4245.998627756054
           Coulomb energy =     2008.741217147934
    Exchange-Corr. energy =     -108.706240511906
 Nuclear repulsion energy =     1617.242303260245

    Dispersion correction =       -0.045319331393

 Numeric. integr. density =      150.000005380019

     Total iterative time =      7.4s


 
                       DFT Final Molecular Orbital Analysis
                       ------------------------------------
...[Orbitals removed]...

 center of mass
 --------------
 x =  -0.12311642 y =   0.11497227 z =   0.02063809

 moments of inertia (a.u.)
 ------------------
        4109.036476065097         409.066579382105        -849.378540943000
         409.066579382105        8930.659453523727         425.399892531194
        -849.378540943000         425.399892531194        9108.852407729528
 
     Multipole analysis of the density
     ---------------------------------
 
     L   x y z        total         alpha         beta         nuclear
     -   - - -        -----         -----         ----         -------
     0   0 0 0     -0.000000    -75.000000    -75.000000    150.000000
 
     1   1 0 0      1.399039    -43.830894    -43.830894     89.060826
     1   0 1 0     -0.227974     -1.704564     -1.704564      3.181155
     1   0 0 1      0.476634     -0.161103     -0.161103      0.798840
 
     2   2 0 0    -87.869869  -1979.302200  -1979.302200   3870.734530
     2   1 1 0      3.240289     70.944507     70.944507   -138.648724
     2   1 0 1      2.958575   -243.690144   -243.690144    490.338863
     2   0 2 0   -122.816684   -428.619322   -428.619322    734.421960
     2   0 1 1     -1.998382    138.225825    138.225825   -278.450032
     2   0 0 2    -94.678794   -644.384545   -644.384545   1194.090297
 
  stpr_wrt_fd_from_sq: overwrite of existing file:
 ./dnRun_Stallo-1_M00000037_X.hess

 HESSIAN: the one electron contributions are done in       3.4s


 HESSIAN: 2-el 1st deriv. term done in                    97.9s


 HESSIAN: 2-el 2nd deriv. term done in                    52.8s

  stpr_wrt_fd_from_sq: overwrite of existing file:
 ./dnRun_Stallo-1_M00000037_X.hess
 stpr_wrt_fd_dipole: overwrite of existing file
 ./dnRun_Stallo-1_M00000037_X.fd_ddipole

 HESSIAN: the two electron contributions are done in     399.3s

                                NWChem CPHF Module
                                ------------------
 
 
  scftype          =     RHF 
  nclosed          =       75
  nopen            =        0
  variables        =    17700
  # of vectors     =      141
  tolerance        = 0.10D-03
  level shift      = 0.00D+00
  max iterations   =       50
  max subspace     =     1410

 Grid integrated density:     150.000005380020
 Requested integration accuracy:   0.10E-07
 SCF residual:   5.331268205621714E-007


Iterative solution of linear equations
  No. of variables    17700
  No. of equations      141
  Maximum subspace     1410
        Iterations       50
       Convergence  1.0D-04
        Start time    730.7


   iter   nsub   residual    time
   ----  ------  --------  ---------
159: WARNING:armci_set_mem_offset: offset changed -487157096448 to -487196774400
147: WARNING:armci_set_mem_offset: offset changed -253526802432 to -253567332352
131: WARNING:armci_set_mem_offset: offset changed 509091168256 to 509051813888
143: WARNING:armci_set_mem_offset: offset changed -16462123008 to -16501051392
39: WARNING:armci_set_mem_offset: offset changed 431693418496 to 431761260544
33: WARNING:armci_set_mem_offset: offset changed 269555617792 to 269622640640
127: WARNING:armci_set_mem_offset: offset changed 761112432640 to 761141747712
115: WARNING:armci_set_mem_offset: offset changed 793731989504 to 793762533376
123: WARNING:armci_set_mem_offset: offset changed 378143186944 to 378173968384
97: WARNING:armci_set_mem_offset: offset changed 761588793344 to 761619517440
103: WARNING:armci_set_mem_offset: offset changed 13703036928 to 13734187008
79: WARNING:armci_set_mem_offset: offset changed -235084382208 to -235052912640
67: WARNING:armci_set_mem_offset: offset changed -563476922368 to -563445207040
81: WARNING:armci_set_mem_offset: offset changed 490987134976 to 491018244096
83: WARNING:armci_set_mem_offset: offset changed 292547567616 to 292578910208
63: WARNING:armci_set_mem_offset: offset changed 608775475200 to 608807956480
1: WARNING:armci_set_mem_offset: offset changed -1107324928 to -1071599616
3: WARNING:armci_set_mem_offset: offset changed 567245443072 to 567280926720
17: WARNING:armci_set_mem_offset: offset changed -168038363136 to -168006848512
19: WARNING:armci_set_mem_offset: offset changed -717714984960 to -717683257344
31: WARNING:armci_set_mem_offset: offset changed -86778126336 to -86745628672
     1    141    1.75D-01     976.0
     2    282    9.90D-02    1225.5
     3    423    4.04D-03    1500.0
     4    564    1.82D-04    1734.9
     5    705    3.32D-06    1976.3
 HESSIAN: the CPHF contributions are done
  stpr_wrt_fd_from_sq: overwrite of existing file:
 ./dnRun_Stallo-1_M00000037_X.hess
 stpr_wrt_fd_dipole: overwrite of existing file
 ./dnRun_Stallo-1_M00000037_X.fd_ddipole

 Derivative Dipole

  
  
 X vector of derivative dipole (au) [debye/angstrom]
 d_dipole_x/<atom=   1,x> =     0.0284     [    0.1366]
 d_dipole_x/<atom=   1,y> =    -0.0077     [   -0.0369]
 d_dipole_x/<atom=   1,z> =    -0.0823     [   -0.3952]
 d_dipole_x/<atom=   2,x> =     0.1065     [    0.5113]
 d_dipole_x/<atom=   2,y> =     0.0366     [    0.1757]
 d_dipole_x/<atom=   2,z> =     0.0593     [    0.2849]
 d_dipole_x/<atom=   3,x> =    -0.0576     [   -0.2766]
 d_dipole_x/<atom=   3,y> =    -0.0169     [   -0.0813]
 d_dipole_x/<atom=   3,z> =    -0.1077     [   -0.5175]
 d_dipole_x/<atom=   4,x> =    -0.0062     [   -0.0298]
 d_dipole_x/<atom=   4,y> =     0.0234     [    0.1123]
 d_dipole_x/<atom=   4,z> =     0.0800     [    0.3843]
 d_dipole_x/<atom=   5,x> =    -0.3356     [   -1.6118]
 d_dipole_x/<atom=   5,y> =    -0.1611     [   -0.7738]
 d_dipole_x/<atom=   5,z> =     0.2069     [    0.9936]
 d_dipole_x/<atom=   6,x> =     0.1096     [    0.5263]
 d_dipole_x/<atom=   6,y> =     0.0416     [    0.1997]
 d_dipole_x/<atom=   6,z> =    -0.0005     [   -0.0026]
 d_dipole_x/<atom=   7,x> =    -0.2606     [   -1.2518]
 d_dipole_x/<atom=   7,y> =    -0.1815     [   -0.8717]
 d_dipole_x/<atom=   7,z> =    -0.2692     [   -1.2930]
 d_dipole_x/<atom=   8,x> =     0.2699     [    1.2964]
 d_dipole_x/<atom=   8,y> =     0.1720     [    0.8263]
 d_dipole_x/<atom=   8,z> =    -0.3518     [   -1.6897]
 d_dipole_x/<atom=   9,x> =    -0.4015     [   -1.9287]
 d_dipole_x/<atom=   9,y> =     0.1141     [    0.5479]
 d_dipole_x/<atom=   9,z> =     0.0415     [    0.1993]
 d_dipole_x/<atom=  10,x> =    -0.3234     [   -1.5535]
 d_dipole_x/<atom=  10,y> =     0.0536     [    0.2573]
 d_dipole_x/<atom=  10,z> =     0.0263     [    0.1262]
 d_dipole_x/<atom=  11,x> =    -0.0005     [   -0.0022]
 d_dipole_x/<atom=  11,y> =    -0.0310     [   -0.1489]
 d_dipole_x/<atom=  11,z> =     0.0722     [    0.3470]
 d_dipole_x/<atom=  12,x> =     1.3522     [    6.4948]
 d_dipole_x/<atom=  12,y> =    -0.0010     [   -0.0046]
 d_dipole_x/<atom=  12,z> =     0.7555     [    3.6288]
 d_dipole_x/<atom=  13,x> =     0.0566     [    0.2718]
 d_dipole_x/<atom=  13,y> =    -0.0156     [   -0.0749]
 d_dipole_x/<atom=  13,z> =     0.0637     [    0.3059]
 d_dipole_x/<atom=  14,x> =     0.0483     [    0.2322]
 d_dipole_x/<atom=  14,y> =     0.0388     [    0.1865]
 d_dipole_x/<atom=  14,z> =     0.0671     [    0.3224]
 d_dipole_x/<atom=  15,x> =    -0.0749     [   -0.3597]
 d_dipole_x/<atom=  15,y> =     0.0132     [    0.0634]
 d_dipole_x/<atom=  15,z> =    -0.0992     [   -0.4763]
 d_dipole_x/<atom=  16,x> =    -1.1682     [   -5.6109]
 d_dipole_x/<atom=  16,y> =     0.0347     [    0.1666]
 d_dipole_x/<atom=  16,z> =    -0.6230     [   -2.9922]
 d_dipole_x/<atom=  17,x> =    -0.1458     [   -0.7002]
 d_dipole_x/<atom=  17,y> =     0.0142     [    0.0683]
 d_dipole_x/<atom=  17,z> =     0.0132     [    0.0633]
 d_dipole_x/<atom=  18,x> =     0.0193     [    0.0925]
 d_dipole_x/<atom=  18,y> =     0.0488     [    0.2344]
 d_dipole_x/<atom=  18,z> =     0.0942     [    0.4525]
 d_dipole_x/<atom=  19,x> =     0.0190     [    0.0913]
 d_dipole_x/<atom=  19,y> =    -0.0485     [   -0.2329]
 d_dipole_x/<atom=  19,z> =     0.0940     [    0.4515]
 d_dipole_x/<atom=  20,x> =    -0.0052     [   -0.0251]
 d_dipole_x/<atom=  20,y> =    -0.1219     [   -0.5856]
 d_dipole_x/<atom=  20,z> =    -0.0413     [   -0.1983]
 d_dipole_x/<atom=  21,x> =     0.0236     [    0.1133]
 d_dipole_x/<atom=  21,y> =    -0.0135     [   -0.0651]
 d_dipole_x/<atom=  21,z> =     0.0788     [    0.3786]
 d_dipole_x/<atom=  22,x> =     0.0190     [    0.0913]
 d_dipole_x/<atom=  22,y> =     0.1070     [    0.5141]
 d_dipole_x/<atom=  22,z> =    -0.0291     [   -0.1397]
 d_dipole_x/<atom=  23,x> =     0.0711     [    0.3414]
 d_dipole_x/<atom=  23,y> =     0.0636     [    0.3055]
 d_dipole_x/<atom=  23,z> =    -0.0017     [   -0.0079]
 d_dipole_x/<atom=  24,x> =     0.0548     [    0.2632]
 d_dipole_x/<atom=  24,y> =    -0.0408     [   -0.1962]
 d_dipole_x/<atom=  24,z> =     0.0820     [    0.3938]
 d_dipole_x/<atom=  25,x> =    -0.1361     [   -0.6537]
 d_dipole_x/<atom=  25,y> =    -0.0062     [   -0.0297]
 d_dipole_x/<atom=  25,z> =    -0.1409     [   -0.6768]
 d_dipole_x/<atom=  26,x> =     0.0414     [    0.1988]
 d_dipole_x/<atom=  26,y> =     0.0231     [    0.1107]
 d_dipole_x/<atom=  26,z> =     0.0904     [    0.4343]
 d_dipole_x/<atom=  27,x> =     0.1024     [    0.4916]
 d_dipole_x/<atom=  27,y> =    -0.0382     [   -0.1837]
 d_dipole_x/<atom=  27,z> =    -0.0218     [   -0.1048]
 d_dipole_x/<atom=  28,x> =    -0.1569     [   -0.7535]
 d_dipole_x/<atom=  28,y> =     0.0019     [    0.0093]
 d_dipole_x/<atom=  28,z> =    -0.1262     [   -0.6061]
 d_dipole_x/<atom=  29,x> =     0.6114     [    2.9366]
 d_dipole_x/<atom=  29,y> =     0.0608     [    0.2921]
 d_dipole_x/<atom=  29,z> =    -0.0245     [   -0.1178]
 d_dipole_x/<atom=  30,x> =     0.0713     [    0.3422]
 d_dipole_x/<atom=  30,y> =     0.0001     [    0.0007]
 d_dipole_x/<atom=  30,z> =     0.0914     [    0.4392]
 d_dipole_x/<atom=  31,x> =    -0.0622     [   -0.2989]
 d_dipole_x/<atom=  31,y> =    -0.0343     [   -0.1648]
 d_dipole_x/<atom=  31,z> =    -0.0983     [   -0.4720]
 d_dipole_x/<atom=  32,x> =     0.0129     [    0.0618]
 d_dipole_x/<atom=  32,y> =     0.0015     [    0.0073]
 d_dipole_x/<atom=  32,z> =     0.0937     [    0.4502]
 d_dipole_x/<atom=  33,x> =    -0.0943     [   -0.4528]
 d_dipole_x/<atom=  33,y> =    -0.0523     [   -0.2512]
 d_dipole_x/<atom=  33,z> =     0.0212     [    0.1019]
 d_dipole_x/<atom=  34,x> =     0.0310     [    0.1488]
 d_dipole_x/<atom=  34,y> =    -0.0108     [   -0.0518]
 d_dipole_x/<atom=  34,z> =     0.0686     [    0.3295]
 d_dipole_x/<atom=  35,x> =     0.0121     [    0.0580]
 d_dipole_x/<atom=  35,y> =    -0.0558     [   -0.2682]
 d_dipole_x/<atom=  35,z> =    -0.0520     [   -0.2499]
 d_dipole_x/<atom=  36,x> =    -0.0277     [   -0.1330]
 d_dipole_x/<atom=  36,y> =     0.1070     [    0.5139]
 d_dipole_x/<atom=  36,z> =    -0.0096     [   -0.0459]
 d_dipole_x/<atom=  37,x> =     0.0494     [    0.2373]
 d_dipole_x/<atom=  37,y> =    -0.0491     [   -0.2360]
 d_dipole_x/<atom=  37,z> =     0.1091     [    0.5239]
 d_dipole_x/<atom=  38,x> =    -0.0117     [   -0.0562]
 d_dipole_x/<atom=  38,y> =     0.1406     [    0.6755]
 d_dipole_x/<atom=  38,z> =    -0.0347     [   -0.1669]
 d_dipole_x/<atom=  39,x> =     0.0217     [    0.1040]
 d_dipole_x/<atom=  39,y> =    -0.1165     [   -0.5598]
 d_dipole_x/<atom=  39,z> =    -0.0857     [   -0.4115]
 d_dipole_x/<atom=  40,x> =     0.0432     [    0.2077]
 d_dipole_x/<atom=  40,y> =     0.0796     [    0.3826]
 d_dipole_x/<atom=  40,z> =     0.0211     [    0.1012]
 d_dipole_x/<atom=  41,x> =    -0.0968     [   -0.4648]
 d_dipole_x/<atom=  41,y> =    -0.0256     [   -0.1230]
 d_dipole_x/<atom=  41,z> =    -0.1042     [   -0.5007]
 d_dipole_x/<atom=  42,x> =     0.0906     [    0.4352]
 d_dipole_x/<atom=  42,y> =    -0.0591     [   -0.2841]
 d_dipole_x/<atom=  42,z> =     0.0103     [    0.0496]
 d_dipole_x/<atom=  43,x> =     0.0656     [    0.3152]
 d_dipole_x/<atom=  43,y> =     0.0084     [    0.0402]
 d_dipole_x/<atom=  43,z> =     0.0430     [    0.2067]
 d_dipole_x/<atom=  44,x> =    -0.1140     [   -0.5475]
 d_dipole_x/<atom=  44,y> =     0.0134     [    0.0642]
 d_dipole_x/<atom=  44,z> =    -0.0303     [   -0.1457]
 d_dipole_x/<atom=  45,x> =     0.1080     [    0.5186]
 d_dipole_x/<atom=  45,y> =    -0.0178     [   -0.0856]
 d_dipole_x/<atom=  45,z> =     0.0567     [    0.2722]
 d_dipole_x/<atom=  46,x> =    -0.0971     [   -0.4664]
 d_dipole_x/<atom=  46,y> =    -0.1061     [   -0.5098]
 d_dipole_x/<atom=  46,z> =    -0.0440     [   -0.2113]
 d_dipole_x/<atom=  47,x> =     0.1371     [    0.6586]
 d_dipole_x/<atom=  47,y> =     0.0136     [    0.0653]
 d_dipole_x/<atom=  47,z> =     0.0376     [    0.1808]
  
 Y vector of derivative dipole (au) [debye/angstrom]
 d_dipole_y/<atom=   1,x> =     0.0905     [    0.4346]
 d_dipole_y/<atom=   1,y> =    -0.0012     [   -0.0057]
 d_dipole_y/<atom=   1,z> =     0.0635     [    0.3051]
 d_dipole_y/<atom=   2,x> =     0.0007     [    0.0032]
 d_dipole_y/<atom=   2,y> =    -0.0060     [   -0.0288]
 d_dipole_y/<atom=   2,z> =    -0.0715     [   -0.3436]
 d_dipole_y/<atom=   3,x> =    -0.0136     [   -0.0655]
 d_dipole_y/<atom=   3,y> =     0.0396     [    0.1902]
 d_dipole_y/<atom=   3,z> =     0.0142     [    0.0681]
 d_dipole_y/<atom=   4,x> =    -0.0364     [   -0.1746]
 d_dipole_y/<atom=   4,y> =     0.0346     [    0.1663]
 d_dipole_y/<atom=   4,z> =     0.0175     [    0.0840]
 d_dipole_y/<atom=   5,x> =    -0.1749     [   -0.8399]
 d_dipole_y/<atom=   5,y> =     0.0504     [    0.2420]
 d_dipole_y/<atom=   5,z> =    -0.0416     [   -0.1999]
 d_dipole_y/<atom=   6,x> =     0.0303     [    0.1455]
 d_dipole_y/<atom=   6,y> =    -0.0277     [   -0.1329]
 d_dipole_y/<atom=   6,z> =     0.0051     [    0.0243]
 d_dipole_y/<atom=   7,x> =    -0.0408     [   -0.1962]
 d_dipole_y/<atom=   7,y> =     0.7394     [    3.5513]
 d_dipole_y/<atom=   7,z> =     0.0344     [    0.1653]
 d_dipole_y/<atom=   8,x> =     0.1258     [    0.6043]
 d_dipole_y/<atom=   8,y> =     0.2430     [    1.1671]
 d_dipole_y/<atom=   8,z> =    -0.0426     [   -0.2048]
 d_dipole_y/<atom=   9,x> =     0.0424     [    0.2038]
 d_dipole_y/<atom=   9,y> =    -0.9045     [   -4.3444]
 d_dipole_y/<atom=   9,z> =    -0.0276     [   -0.1327]
 d_dipole_y/<atom=  10,x> =     0.1037     [    0.4979]
 d_dipole_y/<atom=  10,y> =    -0.9254     [   -4.4447]
 d_dipole_y/<atom=  10,z> =    -0.0147     [   -0.0705]
 d_dipole_y/<atom=  11,x> =    -0.0417     [   -0.2001]
 d_dipole_y/<atom=  11,y> =     0.2364     [    1.1353]
 d_dipole_y/<atom=  11,z> =     0.0221     [    0.1060]
 d_dipole_y/<atom=  12,x> =     0.0320     [    0.1535]
 d_dipole_y/<atom=  12,y> =     0.2061     [    0.9899]
 d_dipole_y/<atom=  12,z> =    -0.0899     [   -0.4319]
 d_dipole_y/<atom=  13,x> =     0.0040     [    0.0190]
 d_dipole_y/<atom=  13,y> =    -0.0537     [   -0.2578]
 d_dipole_y/<atom=  13,z> =     0.0472     [    0.2269]
 d_dipole_y/<atom=  14,x> =     0.0216     [    0.1040]
 d_dipole_y/<atom=  14,y> =    -0.0237     [   -0.1137]
 d_dipole_y/<atom=  14,z> =    -0.0275     [   -0.1320]
 d_dipole_y/<atom=  15,x> =    -0.0432     [   -0.2073]
 d_dipole_y/<atom=  15,y> =     0.0622     [    0.2987]
 d_dipole_y/<atom=  15,z> =    -0.0082     [   -0.0396]
 d_dipole_y/<atom=  16,x> =     0.0339     [    0.1630]
 d_dipole_y/<atom=  16,y> =    -0.2915     [   -1.4001]
 d_dipole_y/<atom=  16,z> =     0.0626     [    0.3006]
 d_dipole_y/<atom=  17,x> =    -0.0019     [   -0.0089]
 d_dipole_y/<atom=  17,y> =    -0.0645     [   -0.3099]
 d_dipole_y/<atom=  17,z> =     0.0127     [    0.0609]
 d_dipole_y/<atom=  18,x> =    -0.0062     [   -0.0296]
 d_dipole_y/<atom=  18,y> =    -0.0605     [   -0.2904]
 d_dipole_y/<atom=  18,z> =     0.0147     [    0.0705]
 d_dipole_y/<atom=  19,x> =    -0.0012     [   -0.0056]
 d_dipole_y/<atom=  19,y> =    -0.0709     [   -0.3407]
 d_dipole_y/<atom=  19,z> =    -0.0052     [   -0.0251]
 d_dipole_y/<atom=  20,x> =    -0.0635     [   -0.3051]
 d_dipole_y/<atom=  20,y> =    -0.0187     [   -0.0897]
 d_dipole_y/<atom=  20,z> =     0.0135     [    0.0650]
 d_dipole_y/<atom=  21,x> =    -0.0160     [   -0.0770]
 d_dipole_y/<atom=  21,y> =     0.1152     [    0.5533]
 d_dipole_y/<atom=  21,z> =     0.0175     [    0.0841]
 d_dipole_y/<atom=  22,x> =     0.0584     [    0.2806]
 d_dipole_y/<atom=  22,y> =     0.0116     [    0.0557]
 d_dipole_y/<atom=  22,z> =    -0.0303     [   -0.1457]
 d_dipole_y/<atom=  23,x> =     0.1101     [    0.5289]
 d_dipole_y/<atom=  23,y> =     0.0098     [    0.0473]
 d_dipole_y/<atom=  23,z> =    -0.0536     [   -0.2576]
 d_dipole_y/<atom=  24,x> =    -0.0267     [   -0.1280]
 d_dipole_y/<atom=  24,y> =     0.0654     [    0.3141]
 d_dipole_y/<atom=  24,z> =     0.0778     [    0.3735]
 d_dipole_y/<atom=  25,x> =    -0.0470     [   -0.2259]
 d_dipole_y/<atom=  25,y> =     0.0729     [    0.3501]
 d_dipole_y/<atom=  25,z> =    -0.0278     [   -0.1336]
 d_dipole_y/<atom=  26,x> =     0.0158     [    0.0759]
 d_dipole_y/<atom=  26,y> =     0.0859     [    0.4125]
 d_dipole_y/<atom=  26,z> =    -0.0028     [   -0.0136]
 d_dipole_y/<atom=  27,x> =    -0.0751     [   -0.3608]
 d_dipole_y/<atom=  27,y> =    -0.0384     [   -0.1842]
 d_dipole_y/<atom=  27,z> =     0.0367     [    0.1761]
 d_dipole_y/<atom=  28,x> =     0.0465     [    0.2235]
 d_dipole_y/<atom=  28,y> =     0.0536     [    0.2576]
 d_dipole_y/<atom=  28,z> =     0.0072     [    0.0344]
 d_dipole_y/<atom=  29,x> =    -0.0308     [   -0.1481]
 d_dipole_y/<atom=  29,y> =     0.1661     [    0.7980]
 d_dipole_y/<atom=  29,z> =     0.0361     [    0.1734]
 d_dipole_y/<atom=  30,x> =    -0.0005     [   -0.0023]
 d_dipole_y/<atom=  30,y> =     0.1226     [    0.5891]
 d_dipole_y/<atom=  30,z> =     0.0010     [    0.0047]
 d_dipole_y/<atom=  31,x> =    -0.0113     [   -0.0543]
 d_dipole_y/<atom=  31,y> =    -0.0240     [   -0.1155]
 d_dipole_y/<atom=  31,z> =    -0.1065     [   -0.5115]
 d_dipole_y/<atom=  32,x> =    -0.0114     [   -0.0546]
 d_dipole_y/<atom=  32,y> =     0.0658     [    0.3159]
 d_dipole_y/<atom=  32,z> =     0.0519     [    0.2495]
 d_dipole_y/<atom=  33,x> =    -0.0206     [   -0.0991]
 d_dipole_y/<atom=  33,y> =     0.0224     [    0.1076]
 d_dipole_y/<atom=  33,z> =    -0.0112     [   -0.0536]
 d_dipole_y/<atom=  34,x> =    -0.0183     [   -0.0881]
 d_dipole_y/<atom=  34,y> =     0.0517     [    0.2485]
 d_dipole_y/<atom=  34,z> =     0.0719     [    0.3454]
 d_dipole_y/<atom=  35,x> =    -0.0502     [   -0.2411]
 d_dipole_y/<atom=  35,y> =     0.0006     [    0.0027]
 d_dipole_y/<atom=  35,z> =    -0.0891     [   -0.4278]
 d_dipole_y/<atom=  36,x> =     0.0269     [    0.1290]
 d_dipole_y/<atom=  36,y> =     0.0535     [    0.2568]
 d_dipole_y/<atom=  36,z> =     0.0163     [    0.0781]
 d_dipole_y/<atom=  37,x> =    -0.0116     [   -0.0556]
 d_dipole_y/<atom=  37,y> =     0.0754     [    0.3623]
 d_dipole_y/<atom=  37,z> =     0.0508     [    0.2441]
 d_dipole_y/<atom=  38,x> =     0.0706     [    0.3390]
 d_dipole_y/<atom=  38,y> =    -0.1143     [   -0.5491]
 d_dipole_y/<atom=  38,z> =     0.0534     [    0.2564]
 d_dipole_y/<atom=  39,x> =    -0.0333     [   -0.1600]
 d_dipole_y/<atom=  39,y> =    -0.0176     [   -0.0844]
 d_dipole_y/<atom=  39,z> =    -0.1042     [   -0.5006]
 d_dipole_y/<atom=  40,x> =     0.0737     [    0.3539]
 d_dipole_y/<atom=  40,y> =     0.0081     [    0.0391]
 d_dipole_y/<atom=  40,z> =     0.0280     [    0.1346]
 d_dipole_y/<atom=  41,x> =    -0.0180     [   -0.0866]
 d_dipole_y/<atom=  41,y> =     0.1104     [    0.5301]
 d_dipole_y/<atom=  41,z> =     0.0090     [    0.0431]
 d_dipole_y/<atom=  42,x> =    -0.0580     [   -0.2787]
 d_dipole_y/<atom=  42,y> =    -0.0202     [   -0.0972]
 d_dipole_y/<atom=  42,z> =    -0.0217     [   -0.1041]
 d_dipole_y/<atom=  43,x> =     0.0078     [    0.0375]
 d_dipole_y/<atom=  43,y> =    -0.0463     [   -0.2225]
 d_dipole_y/<atom=  43,z> =     0.0030     [    0.0143]
 d_dipole_y/<atom=  44,x> =    -0.0615     [   -0.2954]
 d_dipole_y/<atom=  44,y> =    -0.1026     [   -0.4926]
 d_dipole_y/<atom=  44,z> =    -0.0149     [   -0.0713]
 d_dipole_y/<atom=  45,x> =    -0.0008     [   -0.0038]
 d_dipole_y/<atom=  45,y> =     0.0387     [    0.1858]
 d_dipole_y/<atom=  45,z> =     0.0176     [    0.0843]
 d_dipole_y/<atom=  46,x> =    -0.0710     [   -0.3408]
 d_dipole_y/<atom=  46,y> =     0.0365     [    0.1753]
 d_dipole_y/<atom=  46,z> =     0.0121     [    0.0583]
 d_dipole_y/<atom=  47,x> =     0.0908     [    0.4362]
 d_dipole_y/<atom=  47,y> =     0.0338     [    0.1624]
 d_dipole_y/<atom=  47,z> =    -0.0065     [   -0.0313]
  
 Z vector of derivative dipole (au) [debye/angstrom]
 d_dipole_z/<atom=   1,x> =    -0.1040     [   -0.4997]
 d_dipole_z/<atom=   1,y> =    -0.0211     [   -0.1012]
 d_dipole_z/<atom=   1,z> =    -0.0715     [   -0.3436]
 d_dipole_z/<atom=   2,x> =     0.0451     [    0.2166]
 d_dipole_z/<atom=   2,y> =     0.0013     [    0.0062]
 d_dipole_z/<atom=   2,z> =     0.0298     [    0.1433]
 d_dipole_z/<atom=   3,x> =    -0.1260     [   -0.6053]
 d_dipole_z/<atom=   3,y> =     0.0442     [    0.2123]
 d_dipole_z/<atom=   3,z> =    -0.0342     [   -0.1643]
 d_dipole_z/<atom=   4,x> =     0.1222     [    0.5872]
 d_dipole_z/<atom=   4,y> =     0.0539     [    0.2590]
 d_dipole_z/<atom=   4,z> =     0.0187     [    0.0898]
 d_dipole_z/<atom=   5,x> =     0.2285     [    1.0974]
 d_dipole_z/<atom=   5,y> =    -0.0526     [   -0.2528]
 d_dipole_z/<atom=   5,z> =     0.2660     [    1.2775]
 d_dipole_z/<atom=   6,x> =    -0.0159     [   -0.0763]
 d_dipole_z/<atom=   6,y> =    -0.0068     [   -0.0325]
 d_dipole_z/<atom=   6,z> =     0.0159     [    0.0766]
 d_dipole_z/<atom=   7,x> =    -0.3220     [   -1.5468]
 d_dipole_z/<atom=   7,y> =    -0.0358     [   -0.1721]
 d_dipole_z/<atom=   7,z> =    -0.3761     [   -1.8067]
 d_dipole_z/<atom=   8,x> =    -0.1303     [   -0.6260]
 d_dipole_z/<atom=   8,y> =    -0.0452     [   -0.2173]
 d_dipole_z/<atom=   8,z> =    -0.0606     [   -0.2909]
 d_dipole_z/<atom=   9,x> =     0.0248     [    0.1193]
 d_dipole_z/<atom=   9,y> =    -0.0318     [   -0.1526]
 d_dipole_z/<atom=   9,z> =    -0.3470     [   -1.6667]
 d_dipole_z/<atom=  10,x> =     0.0075     [    0.0358]
 d_dipole_z/<atom=  10,y> =    -0.0035     [   -0.0167]
 d_dipole_z/<atom=  10,z> =    -0.3645     [   -1.7506]
 d_dipole_z/<atom=  11,x> =    -0.0875     [   -0.4204]
 d_dipole_z/<atom=  11,y> =    -0.0061     [   -0.0294]
 d_dipole_z/<atom=  11,z> =     0.2870     [    1.3784]
 d_dipole_z/<atom=  12,x> =     0.2693     [    1.2935]
 d_dipole_z/<atom=  12,y> =    -0.0443     [   -0.2130]
 d_dipole_z/<atom=  12,z> =     0.7899     [    3.7942]
 d_dipole_z/<atom=  13,x> =     0.0553     [    0.2658]
 d_dipole_z/<atom=  13,y> =     0.0660     [    0.3170]
 d_dipole_z/<atom=  13,z> =    -0.0241     [   -0.1159]
 d_dipole_z/<atom=  14,x> =     0.0654     [    0.3142]
 d_dipole_z/<atom=  14,y> =    -0.0497     [   -0.2387]
 d_dipole_z/<atom=  14,z> =    -0.0200     [   -0.0960]
 d_dipole_z/<atom=  15,x> =     0.0826     [    0.3968]
 d_dipole_z/<atom=  15,y> =     0.0216     [    0.1038]
 d_dipole_z/<atom=  15,z> =     0.0006     [    0.0030]
 d_dipole_z/<atom=  16,x> =    -0.2514     [   -1.2073]
 d_dipole_z/<atom=  16,y> =     0.0055     [    0.0266]
 d_dipole_z/<atom=  16,z> =    -0.6902     [   -3.3150]
 d_dipole_z/<atom=  17,x> =     0.0306     [    0.1469]
 d_dipole_z/<atom=  17,y> =    -0.0146     [   -0.0699]
 d_dipole_z/<atom=  17,z> =    -0.1599     [   -0.7678]
 d_dipole_z/<atom=  18,x> =     0.0345     [    0.1658]
 d_dipole_z/<atom=  18,y> =    -0.0369     [   -0.1772]
 d_dipole_z/<atom=  18,z> =    -0.0019     [   -0.0091]
 d_dipole_z/<atom=  19,x> =     0.0437     [    0.2101]
 d_dipole_z/<atom=  19,y> =     0.0259     [    0.1245]
 d_dipole_z/<atom=  19,z> =     0.0114     [    0.0550]
 d_dipole_z/<atom=  20,x> =    -0.0219     [   -0.1052]
 d_dipole_z/<atom=  20,y> =     0.0450     [    0.2162]
 d_dipole_z/<atom=  20,z> =     0.1271     [    0.6104]
 d_dipole_z/<atom=  21,x> =     0.1555     [    0.7470]
 d_dipole_z/<atom=  21,y> =     0.0257     [    0.1236]
 d_dipole_z/<atom=  21,z> =    -0.1147     [   -0.5508]
 d_dipole_z/<atom=  22,x> =    -0.0416     [   -0.1998]
 d_dipole_z/<atom=  22,y> =    -0.0314     [   -0.1509]
 d_dipole_z/<atom=  22,z> =     0.1190     [    0.5715]
 d_dipole_z/<atom=  23,x> =    -0.0036     [   -0.0171]
 d_dipole_z/<atom=  23,y> =    -0.0392     [   -0.1882]
 d_dipole_z/<atom=  23,z> =     0.0823     [    0.3953]
 d_dipole_z/<atom=  24,x> =     0.0353     [    0.1698]
 d_dipole_z/<atom=  24,y> =     0.0258     [    0.1239]
 d_dipole_z/<atom=  24,z> =    -0.1523     [   -0.7315]
 d_dipole_z/<atom=  25,x> =    -0.1018     [   -0.4892]
 d_dipole_z/<atom=  25,y> =    -0.0127     [   -0.0612]
 d_dipole_z/<atom=  25,z> =     0.0265     [    0.1274]
 d_dipole_z/<atom=  26,x> =     0.0307     [    0.1472]
 d_dipole_z/<atom=  26,y> =     0.0413     [    0.1984]
 d_dipole_z/<atom=  26,z> =    -0.1719     [   -0.8257]
 d_dipole_z/<atom=  27,x> =    -0.0249     [   -0.1197]
 d_dipole_z/<atom=  27,y> =     0.0148     [    0.0713]
 d_dipole_z/<atom=  27,z> =     0.1078     [    0.5178]
 d_dipole_z/<atom=  28,x> =    -0.0965     [   -0.4637]
 d_dipole_z/<atom=  28,y> =    -0.0075     [   -0.0360]
 d_dipole_z/<atom=  28,z> =     0.0515     [    0.2473]
 d_dipole_z/<atom=  29,x> =     0.1221     [    0.5865]
 d_dipole_z/<atom=  29,y> =     0.0978     [    0.4700]
 d_dipole_z/<atom=  29,z> =     0.1367     [    0.6567]
 d_dipole_z/<atom=  30,x> =    -0.0785     [   -0.3769]
 d_dipole_z/<atom=  30,y> =    -0.0159     [   -0.0765]
 d_dipole_z/<atom=  30,z> =     0.2678     [    1.2863]
 d_dipole_z/<atom=  31,x> =    -0.0521     [   -0.2501]
 d_dipole_z/<atom=  31,y> =    -0.0831     [   -0.3990]
 d_dipole_z/<atom=  31,z> =    -0.0322     [   -0.1546]
 d_dipole_z/<atom=  32,x> =     0.0589     [    0.2829]
 d_dipole_z/<atom=  32,y> =     0.0280     [    0.1343]
 d_dipole_z/<atom=  32,z> =    -0.0262     [   -0.1259]
 d_dipole_z/<atom=  33,x> =    -0.0356     [   -0.1708]
 d_dipole_z/<atom=  33,y> =    -0.0283     [   -0.1360]
 d_dipole_z/<atom=  33,z> =     0.1339     [    0.6430]
 d_dipole_z/<atom=  34,x> =     0.0862     [    0.4143]
 d_dipole_z/<atom=  34,y> =     0.0306     [    0.1472]
 d_dipole_z/<atom=  34,z> =    -0.1143     [   -0.5492]
 d_dipole_z/<atom=  35,x> =    -0.0515     [   -0.2475]
 d_dipole_z/<atom=  35,y> =    -0.0744     [   -0.3574]
 d_dipole_z/<atom=  35,z> =     0.0067     [    0.0320]
 d_dipole_z/<atom=  36,x> =     0.0042     [    0.0204]
 d_dipole_z/<atom=  36,y> =     0.0421     [    0.2022]
 d_dipole_z/<atom=  36,z> =     0.0913     [    0.4387]
 d_dipole_z/<atom=  37,x> =     0.0406     [    0.1950]
 d_dipole_z/<atom=  37,y> =     0.0607     [    0.2918]
 d_dipole_z/<atom=  37,z> =    -0.1256     [   -0.6032]
 d_dipole_z/<atom=  38,x> =    -0.0327     [   -0.1573]
 d_dipole_z/<atom=  38,y> =     0.0648     [    0.3113]
 d_dipole_z/<atom=  38,z> =     0.0849     [    0.4077]
 d_dipole_z/<atom=  39,x> =    -0.0360     [   -0.1731]
 d_dipole_z/<atom=  39,y> =    -0.1275     [   -0.6126]
 d_dipole_z/<atom=  39,z> =    -0.0217     [   -0.1043]
 d_dipole_z/<atom=  40,x> =     0.0939     [    0.4508]
 d_dipole_z/<atom=  40,y> =     0.0167     [    0.0804]
 d_dipole_z/<atom=  40,z> =     0.0814     [    0.3912]
 d_dipole_z/<atom=  41,x> =    -0.1864     [   -0.8955]
 d_dipole_z/<atom=  41,y> =     0.0022     [    0.0104]
 d_dipole_z/<atom=  41,z> =    -0.0220     [   -0.1057]
 d_dipole_z/<atom=  42,x> =     0.0856     [    0.4112]
 d_dipole_z/<atom=  42,y> =     0.0048     [    0.0229]
 d_dipole_z/<atom=  42,z> =     0.0505     [    0.2425]
 d_dipole_z/<atom=  43,x> =     0.0349     [    0.1676]
 d_dipole_z/<atom=  43,y> =    -0.0061     [   -0.0294]
 d_dipole_z/<atom=  43,z> =     0.0648     [    0.3110]
 d_dipole_z/<atom=  44,x> =     0.0948     [    0.4551]
 d_dipole_z/<atom=  44,y> =     0.0510     [    0.2452]
 d_dipole_z/<atom=  44,z> =     0.1028     [    0.4938]
 d_dipole_z/<atom=  45,x> =    -0.0248     [   -0.1192]
 d_dipole_z/<atom=  45,y> =    -0.0311     [   -0.1495]
 d_dipole_z/<atom=  45,z> =    -0.1052     [   -0.5051]
 d_dipole_z/<atom=  46,x> =    -0.0311     [   -0.1491]
 d_dipole_z/<atom=  46,y> =     0.0343     [    0.1648]
 d_dipole_z/<atom=  46,z> =     0.0469     [    0.2253]
 d_dipole_z/<atom=  47,x> =     0.0039     [    0.0188]
 d_dipole_z/<atom=  47,y> =     0.0014     [    0.0066]
 d_dipole_z/<atom=  47,z> =     0.0347     [    0.1666]
  
  
 HESSIAN: the Hessian is done
 Read old hessian file : 
 ./dnRun_Stallo-1_M00000037_X.hess                                              
                                                                                
                                                                                
                   
 vdW contribution to hessian 

              1        2        3        4        5        6        7        8
    1    0.5448   0.0097  -0.0312  -0.0540   0.0445   0.0304  -0.2023  -0.0372
    2    0.0097   0.5430   0.0439   0.0418  -0.2410  -0.1239  -0.0403  -0.0538
    3   -0.0312   0.0439   0.5428   0.0287  -0.1204  -0.1233  -0.1222  -0.0312
    4   -0.0540   0.0418   0.0287   0.0549  -0.0480  -0.0303   0.0055  -0.0214
    5    0.0445  -0.2410  -0.1204  -0.0480   0.2618   0.1291   0.0007  -0.0029
    6    0.0304  -0.1239  -0.1233  -0.0303   0.1291   0.1320   0.0050  -0.0134
    7   -0.2023  -0.0403  -0.1222   0.0055   0.0007   0.0050   0.2183   0.0434
    8   -0.0372  -0.0538  -0.0312  -0.0214  -0.0029  -0.0134   0.0434   0.0578
    9   -0.1232  -0.0334  -0.1381  -0.0120  -0.0010  -0.0092   0.1354   0.0302
   10   -0.2227  -0.0338   0.1307  -0.0043  -0.0012   0.0011  -0.0197  -0.0030
   11   -0.0330  -0.0536   0.0238   0.0222   0.0057  -0.0143  -0.0050  -0.0020
   12    0.1285   0.0230  -0.1344   0.0124   0.0039  -0.0090  -0.0162  -0.0033
   13   -0.0599   0.0177   0.0004  -0.0031   0.0046  -0.0041  -0.0016   0.0179
   14    0.0247  -0.1820   0.0688   0.0052  -0.0227   0.0192   0.0004   0.0024
   15   -0.0059   0.0686  -0.1322   0.0016  -0.0133   0.0122  -0.0028   0.0185
   16    0.0009   0.0029   0.0009   0.0014  -0.0001  -0.0005   0.0003  -0.0003
   17    0.0041  -0.0153  -0.0110   0.0009  -0.0020   0.0035   0.0005   0.0004
   18   -0.0037   0.0177   0.0107  -0.0006   0.0034  -0.0026  -0.0001  -0.0010
   19   -0.0033   0.0012  -0.0029   0.0000   0.0003  -0.0001  -0.0000   0.0002
   20    0.0042  -0.0001   0.0019   0.0014  -0.0006   0.0006  -0.0002  -0.0013
   21   -0.0102  -0.0014  -0.0060   0.0006   0.0003  -0.0003  -0.0005   0.0030
   22    0.0014  -0.0004  -0.0038   0.0001   0.0012  -0.0010   0.0001   0.0021
   23   -0.0140  -0.0001   0.0245  -0.0010   0.0018   0.0009  -0.0001  -0.0003
   24    0.0123   0.0078  -0.0197   0.0000  -0.0018   0.0015   0.0019  -0.0004
   25   -0.0003   0.0003   0.0005  -0.0001   0.0002  -0.0001   0.0000  -0.0000
   26    0.0001   0.0002   0.0002  -0.0004   0.0000  -0.0002   0.0001   0.0001
   27   -0.0000   0.0005   0.0005  -0.0001   0.0002  -0.0001   0.0000  -0.0001
   28   -0.0023  -0.0001  -0.0012   0.0000  -0.0013  -0.0007   0.0000  -0.0011
   29   -0.0013  -0.0004  -0.0011  -0.0009  -0.0006  -0.0006   0.0000   0.0003
   30   -0.0025  -0.0006  -0.0015  -0.0000  -0.0011  -0.0013  -0.0003  -0.0011
   31   -0.0037  -0.0014  -0.0008   0.0002  -0.0001   0.0001  -0.0005   0.0007
   32   -0.0005   0.0002   0.0002   0.0000   0.0001   0.0000   0.0001  -0.0000
   33    0.0003   0.0004   0.0001   0.0000  -0.0001   0.0001   0.0001  -0.0003
   34    0.0016   0.0005   0.0003  -0.0004  -0.0000  -0.0001   0.0001  -0.0004
   35   -0.0007  -0.0002  -0.0005   0.0000  -0.0000   0.0000  -0.0000   0.0002
   36    0.0008   0.0004   0.0009  -0.0000  -0.0002   0.0001   0.0000  -0.0008
   37    0.0002   0.0002   0.0001  -0.0000   0.0000  -0.0000   0.0001  -0.0001
   38    0.0001   0.0000  -0.0000  -0.0001   0.0000  -0.0000   0.0000   0.0000
   39    0.0001   0.0001  -0.0002   0.0000   0.0000   0.0000  -0.0000  -0.0000
   40    0.0003   0.0000   0.0001   0.0000  -0.0000   0.0000   0.0000  -0.0001
   41    0.0000   0.0000   0.0000   0.0000  -0.0000   0.0000  -0.0000  -0.0000
   42    0.0002   0.0000  -0.0001  -0.0001   0.0001  -0.0001  -0.0000   0.0000
   43   -0.0002  -0.0002  -0.0002  -0.0000   0.0000  -0.0000   0.0000   0.0002
   44    0.0003   0.0002   0.0003   0.0000   0.0000   0.0000   0.0001  -0.0000
   45    0.0001   0.0001  -0.0003   0.0001   0.0000  -0.0000   0.0000   0.0002
   46   -0.0003  -0.0002  -0.0001   0.0001  -0.0000   0.0001  -0.0001   0.0002
   47    0.0000   0.0000   0.0001  -0.0000   0.0000  -0.0000   0.0000   0.0000
   48   -0.0002  -0.0001  -0.0001   0.0001   0.0000   0.0001  -0.0001   0.0001
   49   -0.0001   0.0001  -0.0005  -0.0002  -0.0000   0.0001  -0.0000   0.0001
   50   -0.0006  -0.0001  -0.0008   0.0001  -0.0000  -0.0000  -0.0004  -0.0001
   51    0.0002   0.0001   0.0001  -0.0003  -0.0000   0.0001  -0.0001  -0.0002
   52    0.0001   0.0000   0.0001  -0.0001   0.0000   0.0000   0.0000   0.0000
   53   -0.0000  -0.0000   0.0001   0.0000   0.0000  -0.0000   0.0000  -0.0000
   54    0.0001   0.0001   0.0001  -0.0001  -0.0000   0.0000  -0.0000  -0.0001
   55   -0.0000  -0.0001  -0.0001  -0.0000  -0.0000   0.0000  -0.0000  -0.0000
   56   -0.0001  -0.0001  -0.0000  -0.0000  -0.0000   0.0000  -0.0000   0.0000
   57    0.0002   0.0001   0.0000  -0.0000  -0.0000   0.0000  -0.0001  -0.0001
   58   -0.0003  -0.0001  -0.0000   0.0001  -0.0000  -0.0000   0.0000   0.0000
   59    0.0002   0.0001  -0.0001  -0.0002  -0.0000   0.0001  -0.0001  -0.0000
   60   -0.0002  -0.0001  -0.0000   0.0001   0.0000  -0.0001  -0.0000   0.0001
   61   -0.0003  -0.0001  -0.0000   0.0001   0.0000  -0.0000  -0.0001   0.0000
   62    0.0001  -0.0001   0.0001  -0.0000   0.0000  -0.0000   0.0000   0.0000
   63    0.0001  -0.0000   0.0001  -0.0000  -0.0000  -0.0000   0.0000  -0.0000
   64   -0.0015  -0.0000   0.0001  -0.0000   0.0001   0.0000   0.0001   0.0001
   65    0.0003  -0.0001   0.0006   0.0002   0.0000  -0.0001   0.0004   0.0000
   66   -0.0004  -0.0001   0.0003   0.0002   0.0000  -0.0000   0.0001   0.0000
   67    0.0000  -0.0000   0.0000  -0.0000   0.0000  -0.0000   0.0000   0.0000
   68    0.0000   0.0000   0.0000  -0.0000   0.0000  -0.0000   0.0000   0.0000
   69   -0.0001   0.0000  -0.0000   0.0000  -0.0000   0.0000   0.0000   0.0000
   70   -0.0001  -0.0000   0.0000   0.0000   0.0000   0.0000   0.0000   0.0000
   71   -0.0000  -0.0000  -0.0000   0.0000   0.0000  -0.0000   0.0000   0.0000
   72    0.0000   0.0000   0.0000  -0.0000   0.0000  -0.0000   0.0000  -0.0000
   73    0.0001   0.0000  -0.0000  -0.0000   0.0000   0.0000  -0.0000  -0.0000
   74    0.0000   0.0000   0.0000  -0.0000  -0.0000   0.0000  -0.0000  -0.0000
   75    0.0000   0.0000  -0.0000  -0.0000   0.0000   0.0000  -0.0000  -0.0000
   76   -0.0001  -0.0000  -0.0000   0.0000   0.0000  -0.0000   0.0000   0.0000
   77    0.0001   0.0000   0.0000  -0.0000  -0.0000   0.0000  -0.0000  -0.0000
   78    0.0000   0.0000   0.0000  -0.0000  -0.0000  -0.0000   0.0000  -0.0000
   79    0.0000   0.0000  -0.0000  -0.0000  -0.0000  -0.0000   0.0000  -0.0000
   80   -0.0000  -0.0000   0.0000  -0.0000   0.0000   0.0000   0.0000   0.0000
   81   -0.0001  -0.0000  -0.0000   0.0000   0.0000  -0.0000  -0.0000   0.0000
   82    0.0000  -0.0000  -0.0000  -0.0000   0.0000   0.0000  -0.0000  -0.0000
   83   -0.0000   0.0000   0.0000   0.0000   0.0000  -0.0000   0.0000   0.0000
   84    0.0000   0.0000  -0.0000   0.0000   0.0000   0.0000  -0.0000   0.0000
   85    0.0002   0.0001   0.0001  -0.0001  -0.0000  -0.0000   0.0000  -0.0001
   86    0.0001  -0.0000   0.0000   0.0000  -0.0000   0.0000   0.0000  -0.0000
   87   -0.0000  -0.0000   0.0000   0.0000   0.0000   0.0000   0.0000   0.0000
   88    0.0000  -0.0001   0.0000  -0.0000  -0.0000   0.0000  -0.0000   0.0000
   89   -0.0000  -0.0000  -0.0000   0.0000   0.0000   0.0000  -0.0000   0.0000
   90    0.0001  -0.0001   0.0000  -0.0000  -0.0000  -0.0000   0.0000   0.0000
   91   -0.0000  -0.0000  -0.0000   0.0000   0.0000   0.0000  -0.0000   0.0000
   92    0.0000   0.0000   0.0000   0.0000   0.0000   0.0000  -0.0000  -0.0000
   93   -0.0000  -0.0000  -0.0000  -0.0000   0.0000   0.0000  -0.0000   0.0000
   94   -0.0000  -0.0000   0.0000   0.0000  -0.0000   0.0000   0.0000   0.0000
   95    0.0000   0.0000   0.0000   0.0000  -0.0000  -0.0000   0.0000  -0.0000
   96    0.0000   0.0000   0.0000  -0.0000  -0.0000  -0.0000   0.0000  -0.0000
   97   -0.0001  -0.0000  -0.0000   0.0000  -0.0000   0.0000  -0.0000   0.0000
   98   -0.0000  -0.0000  -0.0000   0.0000  -0.0000   0.0000  -0.0000   0.0000
   99    0.0000   0.0000  -0.0000  -0.0000  -0.0000  -0.0000   0.0000  -0.0000
  100    0.0000   0.0000   0.0000  -0.0000  -0.0000  -0.0000   0.0000  -0.0000
  101   -0.0000  -0.0000  -0.0000   0.0000  -0.0000   0.0000  -0.0000   0.0000
  102    0.0000   0.0000  -0.0000  -0.0000   0.0000   0.0000  -0.0000  -0.0000
  103    0.0000   0.0000  -0.0000  -0.0000  -0.0000  -0.0000   0.0000  -0.0000
  104   -0.0000  -0.0000  -0.0000  -0.0000   0.0000   0.0000  -0.0000   0.0000
  105   -0.0000  -0.0000   0.0000   0.0000   0.0000  -0.0000   0.0000   0.0000
  106    0.0000  -0.0000   0.0000  -0.0000  -0.0000  -0.0000   0.0000   0.0000
  107    0.0000   0.0000   0.0000  -0.0000   0.0000  -0.0000   0.0000  -0.0000
  108   -0.0000  -0.0000  -0.0000   0.0000   0.0000   0.0000  -0.0000   0.0000
  109   -0.0000  -0.0000   0.0000   0.0000  -0.0000  -0.0000   0.0000   0.0000
  110   -0.0000  -0.0000  -0.0000   0.0000  -0.0000   0.0000  -0.0000   0.0000
  111    0.0000   0.0000   0.0000  -0.0000  -0.0000  -0.0000   0.0000  -0.0000
  112   -0.0000  -0.0000  -0.0000   0.0000  -0.0000   0.0000  -0.0000   0.0000
  113    0.0000   0.0000   0.0000  -0.0000  -0.0000  -0.0000   0.0000  -0.0000
  114   -0.0000  -0.0000  -0.0000   0.0000  -0.0000   0.0000  -0.0000   0.0000
  115    0.0000   0.0000   0.0000  -0.0000   0.0000  -0.0000  -0.0000  -0.0000
  116   -0.0000  -0.0000  -0.0000   0.0000   0.0000   0.0000  -0.0000   0.0000
  117   -0.0000  -0.0000  -0.0000  -0.0000   0.0000   0.0000  -0.0000   0.0000
  118    0.0000  -0.0000   0.0000  -0.0000   0.0000  -0.0000   0.0000  -0.0000
  119    0.0000   0.0001   0.0000   0.0000  -0.0000  -0.0000   0.0000  -0.0000
  120   -0.0000  -0.0000  -0.0000  -0.0000   0.0000  -0.0000   0.0000   0.0000
  121   -0.0001  -0.0001  -0.0000   0.0000   0.0000   0.0000  -0.0000   0.0000
  122   -0.0000  -0.0000  -0.0000  -0.0000  -0.0000  -0.0000  -0.0000   0.0000
  123    0.0000   0.0000  -0.0000   0.0000   0.0000   0.0000  -0.0000   0.0000
  124    0.0000   0.0000   0.0000  -0.0000  -0.0000  -0.0000   0.0000  -0.0000
  125   -0.0000  -0.0001  -0.0000  -0.0000  -0.0000   0.0000  -0.0000   0.0000
  126    0.0000   0.0000  -0.0000  -0.0000  -0.0000  -0.0000   0.0000  -0.0000
  127   -0.0037  -0.0013  -0.0012   0.0003  -0.0007   0.0002  -0.0001   0.0001
  128   -0.0012   0.0012   0.0012   0.0001   0.0002  -0.0006   0.0000  -0.0001
  129   -0.0023  -0.0027   0.0014  -0.0001   0.0009  -0.0000   0.0000   0.0002
  130    0.0059   0.0038   0.0016  -0.0003  -0.0002  -0.0000  -0.0001  -0.0014
  131    0.0006   0.0012  -0.0022   0.0001   0.0002  -0.0001   0.0002  -0.0002
  132    0.0074   0.0004  -0.0004  -0.0002   0.0001  -0.0000  -0.0002  -0.0008
  133   -0.0006  -0.0001   0.0003   0.0000   0.0000   0.0000  -0.0000   0.0000
  134   -0.0014   0.0001   0.0007   0.0000   0.0000  -0.0000   0.0001   0.0000
  135    0.0007  -0.0000  -0.0001  -0.0000   0.0001  -0.0000  -0.0000  -0.0000
  136    0.0004   0.0001   0.0005  -0.0000   0.0000  -0.0000  -0.0001  -0.0002
  137    0.0016   0.0004   0.0007  -0.0001  -0.0000   0.0000  -0.0001  -0.0004
  138   -0.0013  -0.0006  -0.0005   0.0000  -0.0000   0.0000  -0.0001   0.0004
  139   -0.0002  -0.0002  -0.0001   0.0000   0.0001   0.0000  -0.0000   0.0000
  140   -0.0004  -0.0001   0.0001   0.0000   0.0002  -0.0001   0.0000   0.0000
  141   -0.0002  -0.0003  -0.0002   0.0000  -0.0001  -0.0000  -0.0001   0.0002

              9       10       11       12       13       14       15       16
    1   -0.1232  -0.2227  -0.0330   0.1285  -0.0599   0.0247  -0.0059   0.0009
    2   -0.0334  -0.0338  -0.0536   0.0230   0.0177  -0.1820   0.0686   0.0029
    3   -0.1381   0.1307   0.0238  -0.1344   0.0004   0.0688  -0.1322   0.0009
    4   -0.0120  -0.0043   0.0222   0.0124  -0.0031   0.0052   0.0016   0.0014
    5   -0.0010  -0.0012   0.0057   0.0039   0.0046  -0.0227  -0.0133  -0.0001
    6   -0.0092   0.0011  -0.0143  -0.0090  -0.0041   0.0192   0.0122  -0.0005
    7    0.1354  -0.0197  -0.0050  -0.0162  -0.0016   0.0004  -0.0028   0.0003
    8    0.0302  -0.0030  -0.0020  -0.0033   0.0179   0.0024   0.0185  -0.0003
    9    0.1516   0.0144   0.0034   0.0119  -0.0134  -0.0013  -0.0168   0.0001
   10    0.0144   0.2429   0.0361  -0.1381   0.0064   0.0008  -0.0055   0.0000
   11    0.0034   0.0361   0.0548  -0.0306  -0.0206  -0.0020   0.0149   0.0003
   12    0.0119  -0.1381  -0.0306   0.1471   0.0131   0.0016  -0.0153  -0.0006
   13   -0.0134   0.0064  -0.0206   0.0131   0.2011  -0.0893  -0.1660  -0.0485
   14   -0.0013   0.0008  -0.0020   0.0016  -0.0893   0.5780   0.0041   0.0539
   15   -0.0168  -0.0055   0.0149  -0.0153  -0.1660   0.0041   0.6740   0.0327
   16    0.0001   0.0000   0.0003  -0.0006  -0.0485   0.0539   0.0327   0.0493
   17    0.0003  -0.0005   0.0005   0.0000   0.0634  -0.2656  -0.1042  -0.0665
   18    0.0005   0.0004  -0.0005   0.0003   0.0316  -0.1005  -0.1033  -0.0379
   19   -0.0003   0.0000  -0.0000   0.0004  -0.0004   0.0005  -0.0040  -0.0025
   20    0.0006   0.0003   0.0003   0.0009   0.0001  -0.0057  -0.0020  -0.0051
   21   -0.0017  -0.0005   0.0008  -0.0004   0.0104  -0.0011  -0.0217  -0.0079
   22   -0.0010   0.0005   0.0011   0.0009  -0.1070   0.0015   0.1569  -0.0015
   23    0.0010   0.0010  -0.0037   0.0045   0.0128  -0.0986   0.0124   0.0131
   24    0.0016  -0.0008   0.0019  -0.0006   0.1036   0.0004  -0.3663   0.0096
   25   -0.0000   0.0000   0.0000  -0.0001  -0.0012   0.0016  -0.0019  -0.0002
   26    0.0001  -0.0001  -0.0001  -0.0002   0.0012  -0.0007  -0.0003   0.0007
   27    0.0001   0.0000  -0.0001   0.0000  -0.0017   0.0002  -0.0013   0.0003
   28   -0.0004  -0.0000  -0.0001  -0.0001  -0.0004  -0.0006  -0.0013   0.0001
   29    0.0000   0.0002  -0.0001  -0.0001  -0.0008  -0.0008   0.0003   0.0002
   30   -0.0001  -0.0001   0.0003   0.0005  -0.0010   0.0002  -0.0014   0.0002
   31   -0.0005  -0.0002  -0.0008   0.0006   0.0240   0.0044  -0.0153  -0.0022
   32   -0.0000  -0.0001  -0.0001  -0.0001   0.0021  -0.0028  -0.0014  -0.0002
   33    0.0002  -0.0001  -0.0002   0.0002  -0.0016  -0.0003  -0.0038   0.0003
   34    0.0005  -0.0002  -0.0002   0.0001  -0.0088  -0.0008  -0.0008   0.0007
   35   -0.0001   0.0001  -0.0000   0.0000  -0.0018   0.0031   0.0001   0.0006
   36    0.0003  -0.0002  -0.0004  -0.0001   0.0072   0.0019   0.0003   0.0003
   37    0.0000  -0.0000   0.0001  -0.0001  -0.0009  -0.0006   0.0008   0.0001
   38    0.0000   0.0000   0.0000  -0.0000  -0.0003   0.0001   0.0002   0.0000
   39    0.0000  -0.0000   0.0000   0.0000  -0.0004   0.0000   0.0006   0.0001
   40    0.0000   0.0000   0.0001  -0.0000  -0.0022  -0.0001   0.0010   0.0003
   41   -0.0000  -0.0000  -0.0000   0.0000  -0.0002   0.0002  -0.0000  -0.0001
   42    0.0000   0.0000   0.0000   0.0001  -0.0008  -0.0003   0.0005   0.0000
   43   -0.0001   0.0000   0.0001   0.0001  -0.0017  -0.0002   0.0004  -0.0001
   44   -0.0000  -0.0002  -0.0002  -0.0002   0.0005  -0.0015   0.0002  -0.0001
   45   -0.0001  -0.0005   0.0002  -0.0002  -0.0000  -0.0006   0.0004  -0.0003
   46   -0.0002   0.0001   0.0001  -0.0001   0.0010  -0.0002   0.0014  -0.0002
   47    0.0000  -0.0000   0.0000  -0.0000  -0.0000  -0.0002  -0.0000  -0.0001
   48   -0.0001   0.0001  -0.0000   0.0001   0.0009  -0.0001   0.0003  -0.0001
   49    0.0001  -0.0013  -0.0004   0.0003  -0.0004   0.0004  -0.0000  -0.0002
   50    0.0002   0.0002   0.0003   0.0005   0.0006   0.0007  -0.0001  -0.0003
   51    0.0001   0.0001  -0.0003   0.0004  -0.0008   0.0004  -0.0005   0.0002
   52    0.0000   0.0001  -0.0001  -0.0000  -0.0002  -0.0002   0.0000   0.0001
   53   -0.0000  -0.0000   0.0000  -0.0000   0.0002   0.0001  -0.0001  -0.0000
   54    0.0000   0.0001  -0.0001   0.0001  -0.0002   0.0003  -0.0002   0.0002
   55    0.0000   0.0001  -0.0000   0.0001  -0.0002   0.0002  -0.0001   0.0000
   56   -0.0000   0.0001   0.0000  -0.0000  -0.0003   0.0001   0.0001  -0.0000
   57    0.0001   0.0001  -0.0001   0.0002   0.0000  -0.0001  -0.0002   0.0000
   58   -0.0000   0.0001   0.0003  -0.0001  -0.0002   0.0003   0.0001  -0.0006
   59    0.0001   0.0000  -0.0006   0.0003  -0.0006   0.0001  -0.0001  -0.0001
   60   -0.0000  -0.0001   0.0002   0.0000   0.0001   0.0000   0.0003   0.0001
   61    0.0000   0.0000   0.0001   0.0002  -0.0001  -0.0001   0.0001   0.0001
   62   -0.0000  -0.0000   0.0001  -0.0001  -0.0002  -0.0000   0.0001   0.0000
   63   -0.0000   0.0000   0.0000  -0.0001   0.0000   0.0000  -0.0001   0.0000
   64   -0.0000  -0.0018  -0.0002  -0.0008   0.0005  -0.0003   0.0001   0.0000
   65   -0.0003  -0.0000   0.0006  -0.0006   0.0002  -0.0004   0.0003  -0.0000
   66   -0.0001  -0.0005  -0.0000   0.0000   0.0002  -0.0001   0.0001  -0.0000
   67    0.0000  -0.0000  -0.0000  -0.0000   0.0000  -0.0000  -0.0000  -0.0000
   68    0.0000  -0.0000  -0.0000  -0.0000   0.0000   0.0000  -0.0000   0.0000
   69   -0.0000   0.0000  -0.0000  -0.0000   0.0000  -0.0000   0.0001  -0.0000
   70   -0.0000  -0.0000   0.0000  -0.0000   0.0001  -0.0001   0.0001  -0.0000
   71   -0.0000  -0.0000   0.0000  -0.0000   0.0000  -0.0001   0.0001  -0.0001
   72    0.0000  -0.0000   0.0000   0.0000   0.0000   0.0000  -0.0001   0.0000
   73    0.0000   0.0000  -0.0000   0.0001  -0.0001  -0.0000  -0.0000   0.0001
   74    0.0000   0.0000  -0.0001   0.0000  -0.0001  -0.0000  -0.0000   0.0000
   75    0.0000   0.0000  -0.0000   0.0000  -0.0000  -0.0000   0.0000   0.0000
   76   -0.0000  -0.0000   0.0000  -0.0000  -0.0000   0.0000   0.0001  -0.0000
   77    0.0000   0.0000  -0.0000   0.0000   0.0000  -0.0000  -0.0000   0.0000
   78    0.0000  -0.0000  -0.0000   0.0000   0.0001   0.0000  -0.0001   0.0000
   79    0.0000  -0.0000   0.0000  -0.0000   0.0000   0.0000  -0.0000  -0.0001
   80   -0.0000   0.0000  -0.0000   0.0000  -0.0000   0.0000   0.0000   0.0000
   81   -0.0000   0.0000   0.0000  -0.0000   0.0000  -0.0000   0.0000  -0.0000
   82    0.0000   0.0000  -0.0000   0.0001  -0.0002   0.0000  -0.0000   0.0000
   83   -0.0000  -0.0000   0.0000  -0.0001   0.0001  -0.0001   0.0000  -0.0000
   84   -0.0000  -0.0000  -0.0000   0.0000   0.0000  -0.0000   0.0000   0.0000
   85    0.0001  -0.0000  -0.0000  -0.0000  -0.0003   0.0001  -0.0003   0.0001
   86    0.0000  -0.0000  -0.0000   0.0000   0.0001  -0.0001  -0.0001  -0.0000
   87   -0.0000   0.0000   0.0000  -0.0000  -0.0001  -0.0001   0.0002  -0.0000
   88   -0.0000   0.0000  -0.0000   0.0000  -0.0001  -0.0000   0.0002  -0.0000
   89   -0.0000  -0.0000  -0.0000   0.0000  -0.0001   0.0002  -0.0000   0.0000
   90    0.0000  -0.0000  -0.0000   0.0000  -0.0001   0.0001  -0.0002   0.0001
   91   -0.0000   0.0000   0.0000  -0.0000  -0.0000  -0.0001   0.0001  -0.0000
   92   -0.0000   0.0000  -0.0000   0.0000  -0.0000  -0.0000  -0.0000   0.0000
   93   -0.0000   0.0000  -0.0000   0.0000  -0.0000  -0.0000   0.0000  -0.0000
   94   -0.0000   0.0000   0.0000  -0.0000   0.0001   0.0000   0.0000  -0.0000
   95   -0.0000  -0.0000   0.0000  -0.0000   0.0000  -0.0000   0.0000  -0.0000
   96    0.0000  -0.0000   0.0000  -0.0000   0.0000   0.0000  -0.0000  -0.0000
   97   -0.0000   0.0000   0.0000  -0.0000   0.0000  -0.0000   0.0002  -0.0000
   98   -0.0000   0.0000   0.0000  -0.0000  -0.0000  -0.0000   0.0001  -0.0000
   99    0.0000  -0.0000  -0.0000  -0.0000   0.0000   0.0000  -0.0000  -0.0000
  100    0.0000  -0.0000  -0.0000   0.0000  -0.0000   0.0000  -0.0000  -0.0000
  101   -0.0000   0.0000   0.0000  -0.0000   0.0000  -0.0000   0.0000  -0.0000
  102    0.0000   0.0000  -0.0000   0.0000  -0.0000  -0.0000  -0.0000   0.0000
  103    0.0000  -0.0000  -0.0000   0.0000  -0.0000   0.0000  -0.0000  -0.0000
  104   -0.0000   0.0000  -0.0000   0.0000  -0.0000  -0.0000   0.0000   0.0000
  105   -0.0000  -0.0000   0.0000  -0.0000   0.0000  -0.0000  -0.0000   0.0000
  106    0.0000  -0.0000   0.0000  -0.0000  -0.0000   0.0000   0.0000   0.0000
  107    0.0000  -0.0000  -0.0000  -0.0000   0.0000   0.0000  -0.0001   0.0000
  108   -0.0000   0.0000   0.0000  -0.0000   0.0000  -0.0000   0.0000  -0.0000
  109   -0.0000  -0.0000   0.0000  -0.0000   0.0000   0.0000   0.0000  -0.0000
  110   -0.0000   0.0000   0.0000   0.0000  -0.0000  -0.0000   0.0000  -0.0000
  111    0.0000  -0.0000  -0.0000   0.0000  -0.0000   0.0000  -0.0000   0.0000
  112   -0.0000   0.0000   0.0000   0.0000  -0.0000  -0.0000   0.0000  -0.0000
  113    0.0000  -0.0000  -0.0000  -0.0000   0.0000   0.0000  -0.0000  -0.0000
  114   -0.0000   0.0000   0.0000   0.0000  -0.0000   0.0000   0.0000  -0.0000
  115    0.0000   0.0000  -0.0000   0.0000  -0.0000  -0.0000  -0.0000   0.0000
  116   -0.0000   0.0000   0.0000   0.0000  -0.0000  -0.0000   0.0000   0.0000
  117   -0.0000   0.0000  -0.0000   0.0000  -0.0000  -0.0000   0.0000   0.0000
  118    0.0000  -0.0000  -0.0000   0.0000   0.0001   0.0001  -0.0001  -0.0000
  119    0.0000  -0.0000  -0.0000   0.0000  -0.0001  -0.0000  -0.0000   0.0000
  120    0.0000  -0.0000  -0.0000   0.0000  -0.0000   0.0002  -0.0001   0.0001
  121   -0.0000   0.0000   0.0000   0.0000   0.0002  -0.0000   0.0001  -0.0000
  122   -0.0000   0.0000   0.0000   0.0000   0.0000   0.0001  -0.0000   0.0000
  123   -0.0000   0.0000   0.0000   0.0000  -0.0002  -0.0000   0.0001   0.0000
  124    0.0000  -0.0000  -0.0000  -0.0000  -0.0000  -0.0000  -0.0001   0.0000
  125   -0.0000   0.0000   0.0000  -0.0000   0.0001   0.0001   0.0001   0.0000
  126    0.0000  -0.0000  -0.0000   0.0000   0.0001  -0.0001  -0.0000  -0.0001
  127   -0.0008  -0.0000  -0.0002   0.0002   0.0001   0.0119   0.0049   0.0059
  128   -0.0002  -0.0000   0.0001   0.0002  -0.0009   0.0014   0.0014   0.0005
  129   -0.0005  -0.0001  -0.0000   0.0005   0.0121  -0.0264  -0.0115   0.0054
  130    0.0014  -0.0001   0.0001  -0.0006  -0.0005  -0.0115   0.0032  -0.0029
  131    0.0001   0.0000   0.0003  -0.0001  -0.0058   0.0006   0.0039   0.0006
  132    0.0005  -0.0005   0.0013  -0.0014   0.0062   0.0283  -0.0154  -0.0032
  133   -0.0000   0.0000  -0.0001   0.0001   0.0024  -0.0020   0.0016   0.0000
  134   -0.0000   0.0001  -0.0004   0.0003  -0.0002  -0.0051   0.0014   0.0001
  135    0.0000  -0.0001   0.0002  -0.0002   0.0007   0.0028  -0.0004  -0.0005
  136    0.0001  -0.0000   0.0000  -0.0001   0.0019  -0.0001  -0.0011  -0.0007
  137    0.0004  -0.0000   0.0000  -0.0002  -0.0002  -0.0001  -0.0023  -0.0005
  138   -0.0003   0.0000  -0.0001   0.0001   0.0026   0.0015   0.0004   0.0002
  139   -0.0001  -0.0000   0.0000   0.0001   0.0000  -0.0002  -0.0003   0.0003
  140   -0.0001  -0.0000  -0.0000   0.0001  -0.0004   0.0017  -0.0023   0.0002
  141   -0.0000   0.0000  -0.0000  -0.0000   0.0009   0.0010   0.0012   0.0001

             17       18       19       20       21       22       23       24
    1    0.0041  -0.0037  -0.0033   0.0042  -0.0102   0.0014  -0.0140   0.0123
    2   -0.0153   0.0177   0.0012  -0.0001  -0.0014  -0.0004  -0.0001   0.0078
    3   -0.0110   0.0107  -0.0029   0.0019  -0.0060  -0.0038   0.0245  -0.0197
    4    0.0009  -0.0006   0.0000   0.0014   0.0006   0.0001  -0.0010   0.0000
    5   -0.0020   0.0034   0.0003  -0.0006   0.0003   0.0012   0.0018  -0.0018
    6    0.0035  -0.0026  -0.0001   0.0006  -0.0003  -0.0010   0.0009   0.0015
    7    0.0005  -0.0001  -0.0000  -0.0002  -0.0005   0.0001  -0.0001   0.0019
    8    0.0004  -0.0010   0.0002  -0.0013   0.0030   0.0021  -0.0003  -0.0004
    9    0.0003   0.0005  -0.0003   0.0006  -0.0017  -0.0010   0.0010   0.0016
   10   -0.0005   0.0004   0.0000   0.0003  -0.0005   0.0005   0.0010  -0.0008
   11    0.0005  -0.0005  -0.0000   0.0003   0.0008   0.0011  -0.0037   0.0019
   12    0.0000   0.0003   0.0004   0.0009  -0.0004   0.0009   0.0045  -0.0006
   13    0.0634   0.0316  -0.0004   0.0001   0.0104  -0.1070   0.0128   0.1036
   14   -0.2656  -0.1005   0.0005  -0.0057  -0.0011   0.0015  -0.0986   0.0004
   15   -0.1042  -0.1033  -0.0040  -0.0020  -0.0217   0.1569   0.0124  -0.3663
   16   -0.0665  -0.0379  -0.0025  -0.0051  -0.0079  -0.0015   0.0131   0.0096
   17    0.2789   0.1085  -0.0016  -0.0024  -0.0019  -0.0005   0.0027   0.0026
   18    0.1085   0.1103  -0.0004  -0.0023  -0.0026   0.0082  -0.0266  -0.0114
   19   -0.0016  -0.0004   0.2487  -0.0046  -0.0667  -0.0114  -0.0003   0.0072
   20   -0.0024  -0.0023  -0.0046   0.2369  -0.0179   0.0031  -0.0128   0.0026
   21   -0.0019  -0.0026  -0.0667  -0.0179   0.4051   0.0051   0.0000   0.0037
   22   -0.0005   0.0082  -0.0114   0.0031   0.0051   0.2792  -0.0636  -0.2450
   23    0.0027  -0.0266  -0.0003  -0.0128   0.0000  -0.0636   0.5948   0.0032
   24    0.0026  -0.0114   0.0072   0.0026   0.0037  -0.2450   0.0032   0.5792
   25    0.0008   0.0004  -0.0100   0.0050   0.0002  -0.0021  -0.0002   0.0012
   26   -0.0005   0.0005   0.0045  -0.0705  -0.0039  -0.0004  -0.0003   0.0005
   27    0.0006   0.0002  -0.0004   0.0034  -0.0122   0.0003   0.0010  -0.0004
   28   -0.0002   0.0001  -0.0133   0.0097   0.0001  -0.0010  -0.0013   0.0008
   29    0.0003   0.0001   0.0125  -0.0727   0.0006  -0.0001  -0.0009  -0.0008
   30   -0.0001   0.0003   0.0020  -0.0077  -0.0128   0.0000  -0.0004  -0.0002
   31    0.0001  -0.0006  -0.0809  -0.0072   0.0773   0.0076   0.0036   0.0313
   32    0.0004  -0.0004  -0.0057  -0.0468   0.0171   0.0022   0.0006   0.0021
   33    0.0002   0.0002   0.0736   0.0165  -0.2746  -0.0010  -0.0013  -0.0013
   34    0.0001   0.0001  -0.1091  -0.0026  -0.0155  -0.0039  -0.0006  -0.0030
   35    0.0002   0.0001  -0.0025  -0.0481  -0.0012  -0.0019   0.0044  -0.0009
   36   -0.0000   0.0001  -0.0087  -0.0001  -0.0583   0.0007   0.0006   0.0146
   37    0.0000   0.0000   0.0097  -0.0070   0.0051  -0.0004   0.0005  -0.0009
   38    0.0000   0.0000  -0.0022   0.0011   0.0069  -0.0003  -0.0004  -0.0003
   39    0.0000  -0.0000   0.0081   0.0142  -0.0061  -0.0003   0.0007  -0.0013
   40   -0.0001   0.0000   0.0077   0.0084   0.0076   0.0004  -0.0008  -0.0031
   41   -0.0001   0.0000   0.0036   0.0050  -0.0048   0.0006  -0.0002   0.0003
   42   -0.0000   0.0001   0.0123  -0.0112  -0.0067   0.0005  -0.0009  -0.0018
   43   -0.0000  -0.0001  -0.0052  -0.0017   0.0196  -0.0010  -0.0001  -0.0026
   44    0.0001  -0.0001  -0.0040   0.0087   0.0017   0.0001  -0.0003  -0.0000
   45   -0.0001  -0.0001   0.0059   0.0012   0.0043  -0.0002  -0.0001  -0.0006
   46    0.0000  -0.0001  -0.0316  -0.0020  -0.0170   0.0003   0.0004   0.0012
   47    0.0000   0.0000  -0.0020   0.0068  -0.0001   0.0001  -0.0005  -0.0002
   48    0.0001  -0.0000  -0.0319  -0.0040   0.0018   0.0013   0.0004  -0.0004
   49   -0.0000   0.0000   0.0026   0.0000   0.0018   0.0001   0.0000  -0.0004
   50   -0.0005   0.0001  -0.0015   0.0097   0.0047   0.0000  -0.0003   0.0002
   51    0.0000  -0.0000   0.0026   0.0016   0.0048  -0.0003  -0.0001  -0.0002
   52    0.0001  -0.0000   0.0010   0.0001   0.0002  -0.0000  -0.0000  -0.0002
   53   -0.0000   0.0000   0.0006   0.0004  -0.0006   0.0000   0.0000   0.0002
   54    0.0001   0.0000   0.0006  -0.0012  -0.0030  -0.0000   0.0001   0.0004
   55    0.0000   0.0000   0.0015   0.0004   0.0002  -0.0000   0.0000  -0.0002
   56    0.0000  -0.0000  -0.0001  -0.0003   0.0011  -0.0000   0.0001  -0.0003
   57    0.0000   0.0000  -0.0009   0.0018  -0.0025   0.0001  -0.0001   0.0005
   58   -0.0003   0.0001   0.0010  -0.0029  -0.0009   0.0001  -0.0002   0.0003
   59    0.0003  -0.0000   0.0009  -0.0024  -0.0064   0.0002   0.0001  -0.0002
   60   -0.0000   0.0001   0.0031  -0.0018  -0.0044  -0.0000  -0.0001  -0.0003
   61    0.0001   0.0001   0.0000   0.0008  -0.0034   0.0001   0.0001  -0.0002
   62    0.0000   0.0001   0.0008  -0.0045  -0.0015   0.0001   0.0000  -0.0000
   63    0.0000  -0.0000  -0.0012  -0.0006   0.0008   0.0000  -0.0000   0.0002
   64    0.0000  -0.0001   0.0003   0.0013   0.0014  -0.0001   0.0001   0.0000
   65   -0.0000  -0.0000  -0.0006  -0.0037   0.0046  -0.0001   0.0001   0.0001
   66    0.0000  -0.0000   0.0025   0.0027  -0.0037  -0.0000   0.0002  -0.0002
   67    0.0000  -0.0000   0.0000  -0.0005  -0.0003  -0.0000  -0.0000   0.0000
   68   -0.0000   0.0000  -0.0000  -0.0009   0.0000  -0.0000  -0.0000   0.0001
   69   -0.0000  -0.0000  -0.0002  -0.0000   0.0002   0.0000   0.0000  -0.0000
   70   -0.0000  -0.0000  -0.0001   0.0002   0.0006  -0.0000  -0.0000  -0.0001
   71   -0.0000  -0.0000   0.0001   0.0001   0.0009  -0.0000  -0.0000  -0.0002
   72    0.0000   0.0000   0.0003  -0.0003  -0.0003   0.0000  -0.0000   0.0001
   73    0.0000  -0.0000   0.0006   0.0004  -0.0001   0.0000   0.0000  -0.0001
   74    0.0000  -0.0000   0.0004  -0.0001  -0.0002  -0.0000   0.0000  -0.0001
   75    0.0000   0.0000  -0.0001  -0.0001  -0.0000   0.0000   0.0000  -0.0000
   76   -0.0000   0.0000   0.0003  -0.0005   0.0007  -0.0000   0.0000  -0.0001
   77   -0.0000   0.0000  -0.0003   0.0001  -0.0007   0.0000  -0.0000   0.0002
   78    0.0000  -0.0000   0.0001   0.0005  -0.0005   0.0000  -0.0000   0.0001
   79   -0.0000  -0.0000  -0.0002   0.0006  -0.0002  -0.0000   0.0000   0.0000
   80    0.0000   0.0000   0.0004  -0.0008  -0.0002  -0.0000  -0.0000  -0.0000
   81   -0.0000   0.0000  -0.0000  -0.0004   0.0002   0.0000  -0.0000  -0.0000
   82    0.0000   0.0000   0.0008  -0.0001  -0.0002   0.0000   0.0000  -0.0001
   83   -0.0000   0.0000  -0.0002  -0.0003   0.0002  -0.0000  -0.0000   0.0000
   84    0.0000  -0.0000  -0.0001   0.0000  -0.0000   0.0000   0.0000  -0.0000
   85   -0.0000   0.0000   0.0059   0.0016  -0.0002  -0.0002  -0.0002   0.0002
   86   -0.0000  -0.0000   0.0007   0.0097   0.0002   0.0002  -0.0006   0.0000
   87   -0.0000  -0.0000  -0.0004   0.0011  -0.0015  -0.0002  -0.0000   0.0001
   88    0.0000  -0.0000  -0.0035  -0.0005  -0.0059   0.0003   0.0003   0.0002
   89    0.0000   0.0000   0.0000  -0.0034  -0.0014   0.0002  -0.0000   0.0001
   90    0.0000  -0.0000   0.0027   0.0005  -0.0028   0.0004   0.0001   0.0001
   91   -0.0000  -0.0000  -0.0009   0.0016  -0.0003   0.0000  -0.0001  -0.0000
   92   -0.0000   0.0000  -0.0001  -0.0002   0.0001   0.0000   0.0000  -0.0000
   93    0.0000  -0.0000   0.0001  -0.0001   0.0000   0.0000   0.0000  -0.0001
   94   -0.0000  -0.0000  -0.0009   0.0000  -0.0001   0.0001   0.0000   0.0001
   95   -0.0000  -0.0000  -0.0002   0.0001   0.0000  -0.0000   0.0000   0.0000
   96   -0.0000   0.0000   0.0002   0.0001   0.0001  -0.0000  -0.0000   0.0000
   97    0.0000  -0.0000  -0.0016  -0.0021  -0.0004   0.0000   0.0002  -0.0000
   98    0.0000  -0.0000  -0.0006  -0.0005  -0.0002  -0.0000   0.0001  -0.0000
   99   -0.0000  -0.0000   0.0004   0.0002  -0.0001  -0.0000  -0.0000   0.0000
  100   -0.0000  -0.0000   0.0002   0.0001   0.0000  -0.0000  -0.0000   0.0000
  101    0.0000  -0.0000  -0.0002  -0.0001  -0.0001   0.0000   0.0000   0.0000
  102    0.0000  -0.0000   0.0001   0.0000   0.0000  -0.0000   0.0000  -0.0000
  103    0.0000  -0.0000   0.0001   0.0001   0.0000  -0.0000   0.0000   0.0000
  104    0.0000   0.0000   0.0001  -0.0002   0.0001   0.0000   0.0000  -0.0000
  105   -0.0000   0.0000  -0.0000  -0.0001   0.0000  -0.0000  -0.0000   0.0000
  106   -0.0000  -0.0000  -0.0000  -0.0001   0.0000   0.0000   0.0000  -0.0000
  107   -0.0000   0.0000   0.0007   0.0006   0.0002  -0.0000  -0.0001   0.0000
  108   -0.0000   0.0000  -0.0002  -0.0002   0.0000  -0.0000   0.0000  -0.0000
  109   -0.0000   0.0000  -0.0001  -0.0000  -0.0000   0.0000  -0.0000   0.0000
  110   -0.0000  -0.0000  -0.0001   0.0000  -0.0000   0.0000   0.0000  -0.0000
  111    0.0000  -0.0000   0.0001   0.0001   0.0000  -0.0000  -0.0000   0.0000
  112    0.0000  -0.0000  -0.0003  -0.0002  -0.0001   0.0000   0.0000  -0.0000
  113   -0.0000   0.0000   0.0001   0.0000   0.0000  -0.0000  -0.0000   0.0000
  114    0.0000  -0.0000  -0.0000   0.0000  -0.0000   0.0000   0.0000  -0.0000
  115   -0.0000   0.0000   0.0000  -0.0001   0.0000  -0.0000  -0.0000  -0.0000
  116    0.0000   0.0000  -0.0001  -0.0001  -0.0000   0.0000   0.0000  -0.0000
  117    0.0000   0.0000   0.0000  -0.0001  -0.0000   0.0000   0.0000  -0.0000
  118   -0.0000   0.0000   0.0003   0.0002  -0.0009  -0.0000  -0.0003   0.0002
  119   -0.0000   0.0000   0.0003   0.0003   0.0012  -0.0005  -0.0000  -0.0001
  120    0.0000   0.0000  -0.0014  -0.0007  -0.0001  -0.0000  -0.0001  -0.0000
  121    0.0000  -0.0000  -0.0012  -0.0001  -0.0011   0.0004   0.0002   0.0002
  122   -0.0000   0.0000  -0.0001   0.0001   0.0003  -0.0000  -0.0000   0.0000
  123    0.0000  -0.0000   0.0008  -0.0000   0.0002  -0.0001   0.0000  -0.0001
  124   -0.0000   0.0000   0.0006   0.0001   0.0002  -0.0002   0.0001   0.0001
  125   -0.0000  -0.0000  -0.0002   0.0004  -0.0008   0.0003   0.0002   0.0001
  126   -0.0000  -0.0000  -0.0018   0.0008   0.0000   0.0000   0.0001  -0.0000
  127    0.0005   0.0043  -0.0030   0.0035   0.0005  -0.0805   0.0902   0.0475
  128    0.0011   0.0011  -0.0010   0.0006   0.0004   0.0908  -0.2566  -0.0920
  129    0.0016  -0.0032  -0.0011   0.0010   0.0003   0.0478  -0.0856  -0.0879
  130   -0.0015  -0.0014  -0.0021  -0.0051   0.0013  -0.0756  -0.0274   0.0323
  131    0.0012  -0.0012  -0.0005  -0.0004   0.0002  -0.0244  -0.1981   0.0563
  132    0.0002   0.0006  -0.0002  -0.0018   0.0008   0.0285   0.0572  -0.1065
  133    0.0000  -0.0002   0.0004   0.0006  -0.0009  -0.0045   0.0006   0.0104
  134    0.0000   0.0001   0.0002   0.0001  -0.0007  -0.0034   0.0039   0.0312
  135    0.0001   0.0003   0.0000  -0.0003   0.0004   0.0010  -0.0033  -0.0101
  136    0.0000  -0.0000  -0.0001  -0.0002   0.0000  -0.0087  -0.0034  -0.0001
  137   -0.0000  -0.0001   0.0003  -0.0014   0.0002  -0.0253  -0.0099  -0.0056
  138   -0.0000  -0.0001  -0.0002   0.0005   0.0000   0.0133   0.0035   0.0036
  139    0.0004  -0.0001   0.0000  -0.0011   0.0001   0.0074  -0.0095  -0.0039
  140    0.0003   0.0009   0.0003  -0.0008   0.0002   0.0171  -0.0248  -0.0069
  141   -0.0004  -0.0002   0.0001   0.0001  -0.0003  -0.0121   0.0084   0.0040

             25       26       27       28       29       30       31       32
    1   -0.0003   0.0001  -0.0000  -0.0023  -0.0013  -0.0025  -0.0037  -0.0005
    2    0.0003   0.0002   0.0005  -0.0001  -0.0004  -0.0006  -0.0014   0.0002
    3    0.0005   0.0002   0.0005  -0.0012  -0.0011  -0.0015  -0.0008   0.0002
    4   -0.0001  -0.0004  -0.0001   0.0000  -0.0009  -0.0000   0.0002   0.0000
    5    0.0002   0.0000   0.0002  -0.0013  -0.0006  -0.0011  -0.0001   0.0001
    6   -0.0001  -0.0002  -0.0001  -0.0007  -0.0006  -0.0013   0.0001   0.0000
    7    0.0000   0.0001   0.0000   0.0000   0.0000  -0.0003  -0.0005   0.0001
    8   -0.0000   0.0001  -0.0001  -0.0011   0.0003  -0.0011   0.0007  -0.0000
    9   -0.0000   0.0001   0.0001  -0.0004   0.0000  -0.0001  -0.0005  -0.0000
   10    0.0000  -0.0001   0.0000  -0.0000   0.0002  -0.0001  -0.0002  -0.0001
   11    0.0000  -0.0001  -0.0001  -0.0001  -0.0001   0.0003  -0.0008  -0.0001
   12   -0.0001  -0.0002   0.0000  -0.0001  -0.0001   0.0005   0.0006  -0.0001
   13   -0.0012   0.0012  -0.0017  -0.0004  -0.0008  -0.0010   0.0240   0.0021
   14    0.0016  -0.0007   0.0002  -0.0006  -0.0008   0.0002   0.0044  -0.0028
   15   -0.0019  -0.0003  -0.0013  -0.0013   0.0003  -0.0014  -0.0153  -0.0014
   16   -0.0002   0.0007   0.0003   0.0001   0.0002   0.0002  -0.0022  -0.0002
   17    0.0008  -0.0005   0.0006  -0.0002   0.0003  -0.0001   0.0001   0.0004
   18    0.0004   0.0005   0.0002   0.0001   0.0001   0.0003  -0.0006  -0.0004
   19   -0.0100   0.0045  -0.0004  -0.0133   0.0125   0.0020  -0.0809  -0.0057
   20    0.0050  -0.0705   0.0034   0.0097  -0.0727  -0.0077  -0.0072  -0.0468
   21    0.0002  -0.0039  -0.0122   0.0001   0.0006  -0.0128   0.0773   0.0171
   22   -0.0021  -0.0004   0.0003  -0.0010  -0.0001   0.0000   0.0076   0.0022
   23   -0.0002  -0.0003   0.0010  -0.0013  -0.0009  -0.0004   0.0036   0.0006
   24    0.0012   0.0005  -0.0004   0.0008  -0.0008  -0.0002   0.0313   0.0021
   25    0.0189  -0.0078  -0.0023   0.0025   0.0009  -0.0001  -0.0001   0.0012
   26   -0.0078   0.0887   0.0032   0.0028  -0.0098   0.0002   0.0002   0.0006
   27   -0.0023   0.0032   0.0118   0.0001  -0.0014   0.0035   0.0022  -0.0060
   28    0.0025   0.0028   0.0001   0.0161  -0.0113   0.0003   0.0005  -0.0016
   29    0.0009  -0.0098  -0.0014  -0.0113   0.0918   0.0022  -0.0004  -0.0014
   30   -0.0001   0.0002   0.0035   0.0003   0.0022   0.0162   0.0009   0.0080
   31   -0.0001   0.0002   0.0022   0.0005  -0.0004   0.0009   0.1831  -0.0471
   32    0.0012   0.0006  -0.0060  -0.0016  -0.0014   0.0080  -0.0471   0.5451
   33    0.0017  -0.0006  -0.0030   0.0018   0.0017  -0.0032  -0.1451  -0.0210
   34   -0.0053  -0.0004   0.0000  -0.0050  -0.0013   0.0002   0.0040  -0.0005
   35   -0.0055  -0.0073  -0.0012   0.0072  -0.0042   0.0009   0.0004  -0.0025
   36   -0.0026  -0.0004  -0.0007  -0.0012  -0.0010  -0.0005   0.0074  -0.0003
   37   -0.0009   0.0011  -0.0011   0.0007   0.0005   0.0001  -0.0415  -0.0252
   38    0.0005  -0.0004  -0.0009  -0.0002   0.0003   0.0006  -0.0162  -0.2650
   39   -0.0006  -0.0020   0.0008  -0.0002  -0.0008   0.0010   0.0099   0.1170
   40    0.0006  -0.0005   0.0002  -0.0007  -0.0011  -0.0015  -0.0688   0.0786
   41    0.0002   0.0001  -0.0003  -0.0005  -0.0014   0.0010   0.0707  -0.2288
   42   -0.0003   0.0006   0.0011  -0.0012   0.0020   0.0007   0.0437  -0.1151
   43    0.0001   0.0002  -0.0002   0.0004  -0.0001  -0.0003  -0.0007  -0.0002
   44    0.0015   0.0003  -0.0001  -0.0014  -0.0003  -0.0000  -0.0004   0.0027
[...]
  198 Torsion                  9     7     8    44          37.62584    6.70661
  199 Torsion                  9     7    11    13          -1.40357   -0.27292
  200 Torsion                  9     7    11    14        -177.57823    0.45615
  201 Torsion                  9     7    12    15          92.38057    0.64964
  202 Torsion                  9     7    12    16         -85.40284    0.46201
  203 Torsion                 10     7     8    43         -15.55039    5.59642
  204 Torsion                 10     7     8    44        -143.13522    6.91298
  205 Torsion                 10     7    11    13         178.45656   -1.26786
  206 Torsion                 10     7    11    14           2.28190   -0.53880
  207 Torsion                 10     7    12    15         -86.85574    0.40365
  208 Torsion                 10     7    12    16          95.36084    0.21602
  209 Torsion                 11     7     8    43          74.77307    6.72735
  210 Torsion                 11     7     8    44         -52.81176    8.04392
  211 Torsion                 11     7    12    15        -177.33144    0.41288
  212 Torsion                 11     7    12    16           4.88514    0.22526
  213 Torsion                 12     7    11    13         -89.20729   -1.11341
  214 Torsion                 12     7    11    14          94.61806   -0.38435
  215 Torsion                 12    15    17    20         -60.45197   -1.17708
  216 Torsion                 12    15    17    21        -177.79443   -1.33394
  217 Torsion                 12    15    17    22          64.39524   -1.01115
  218 Torsion                 12    15    18    23         -53.11769   -2.64432
  219 Torsion                 12    15    18    24        -171.45941   -2.74791
  220 Torsion                 12    15    18    25          68.24185   -2.89009
  221 Torsion                 12    15    19    26         169.62405   -0.05260
  222 Torsion                 12    15    19    27          51.54188    0.05072
  223 Torsion                 12    15    19    28         -70.63611   -0.03389
  224 Torsion                 12    16    29    31         133.03037   -0.88360
  225 Torsion                 12    16    29    32          16.77683   -0.81118
  226 Torsion                 12    16    29    33        -105.64230   -0.88015
  227 Torsion                 12    16    30    40         -56.71168   -1.09008
  228 Torsion                 12    16    30    41        -175.96120   -1.01660
  229 Torsion                 12    16    30    42          64.27774   -0.95573
  230 Torsion                 15    12     8    43        -102.58275    6.86762
  231 Torsion                 15    12     8    44         130.05081    8.10611
  232 Torsion                  8     7    15    12        -178.95878   -6.04076
  233 Torsion                 15    12    16    29          -5.05986    1.44168
  234 Torsion                 15    12    16    30         178.57651    0.50437
  235 Torsion                 16    12     8    43          79.94274    4.86062
  236 Torsion                 16    12     8    44         -47.42370    6.09911
  237 Torsion                  8     7    16    12         178.76009    7.13536
  238 Torsion                 16    12    15    17         177.94971   -1.26740
  239 Torsion                 16    12    15    18         -66.89671   -1.20017
  240 Torsion                 16    12    15    19          61.36507   -1.06550
  241 Torsion                 16    29    33    34         -60.04642    0.76244
  242 Torsion                 16    29    33    35          56.33815    0.78142
  243 Torsion                 16    29    33    36         178.19922    0.80562
  244 Torsion                 17    15    18    23          63.75147   -2.67011
  245 Torsion                 17    15    18    24         -54.59025   -2.77371
  246 Torsion                 17    15    18    25        -174.88899   -2.91588
  247 Torsion                 17    15    19    26          51.38040    0.07606
  248 Torsion                 17    15    19    27         -66.70177    0.17938
  249 Torsion                 17    15    19    28         171.12024    0.09477
  250 Torsion                 18    15    17    20        -178.12826   -1.19358
  251 Torsion                 18    15    17    21          64.52929   -1.35044
  252 Torsion                 18    15    17    22         -53.28105   -1.02765
  253 Torsion                 18    15    19    26         -64.51037    0.07560
  254 Torsion                 18    15    19    27         177.40747    0.17892
  255 Torsion                 18    15    19    28          55.22947    0.09431
  256 Torsion                 19    15    17    20          60.38800   -1.17863
  257 Torsion                 19    15    17    21         -56.95446   -1.33549
  258 Torsion                 19    15    17    22        -174.76479   -1.01270
  259 Torsion                 19    15    18    23         179.59419   -2.82762
  260 Torsion                 19    15    18    24          61.25247   -2.93122
  261 Torsion                 19    15    18    25         -59.04627   -3.07339
  262 Torsion                 29    16    30    40         126.40286   -1.89495
  263 Torsion                 29    16    30    41           7.15335   -1.82147
  264 Torsion                 29    16    30    42        -112.60771   -1.76061
  265 Torsion                 29    33    36    37         -59.41599    1.63010
  266 Torsion                 29    33    36    38        -179.18373    1.63792
  267 Torsion                 29    33    36    39          60.79230    1.63465
  268 Torsion                 30    16    29    31         -50.35271   -0.00879
  269 Torsion                 30    16    29    32        -166.60624    0.06362
  270 Torsion                 30    16    29    33          70.97462   -0.00535
  271 Torsion                 31    29    33    34          59.93901    0.76274
  272 Torsion                 31    29    33    35         176.32357    0.78173
  273 Torsion                 31    29    33    36         -61.81536    0.80592
  274 Torsion                 32    29    33    34         177.28694    0.68779
  275 Torsion                 32    29    33    35         -66.32849    0.70677
  276 Torsion                 32    29    33    36          55.53258    0.73097
  277 Torsion                 34    33    36    37         178.65623    1.63885
  278 Torsion                 34    33    36    38          58.88849    1.64667
  279 Torsion                 34    33    36    39         -61.13548    1.64340
  280 Torsion                 35    33    36    37          61.56673    1.68773
  281 Torsion                 35    33    36    38         -58.20102    1.69555
  282 Torsion                 35    33    36    39        -178.22499    1.69228
  283 Torsion                  8    43     7    12        -176.38478   -5.82628
  284 Torsion                 43     8    44    45         -38.70911   -1.83747
  285 Torsion                 43     8    44    46          79.91781   -1.74093
  286 Torsion                 43     8    44    47        -161.23924   -1.87819
  287 Torsion                  8    44     7    12         178.57959   -1.75360
 
 ==============================================================================
                                internuclear distances
 ------------------------------------------------------------------------------
       center one      |      center two      | atomic units |  angstroms
 ------------------------------------------------------------------------------
    2 H2               |   1 C1               |     2.07242  |     1.09668
    3 H3               |   1 C1               |     2.08150  |     1.10148
    4 H4               |   1 C1               |     2.07179  |     1.09634
    5 C5               |   1 C1               |     2.84582  |     1.50594
    6 H6               |   5 C5               |     2.06852  |     1.09461
    8 C8               |   5 C5               |     2.60232  |     1.37709
    9 Cl9              |   7 Ru7              |     4.60244  |     2.43551
   10 Cl10             |   7 Ru7              |     4.58950  |     2.42866
   11 C11              |   7 Ru7              |     3.42038  |     1.80999
   12 C12              |   7 Ru7              |     3.73248  |     1.97514
   13 H13              |  11 C11              |     2.08151  |     1.10149
   14 H14              |  11 C11              |     2.08316  |     1.10236
   15 C15              |  12 C12              |     2.92072  |     1.54558
   16 N16              |  12 C12              |     2.50411  |     1.32512
   17 C17              |  15 C15              |     2.93463  |     1.55294
   18 C18              |  15 C15              |     2.92681  |     1.54880
   19 C19              |  15 C15              |     2.92522  |     1.54796
   20 H20              |  17 C17              |     2.08064  |     1.10103
   21 H21              |  17 C17              |     2.07131  |     1.09609
   22 H22              |  17 C17              |     2.07327  |     1.09713
   23 H23              |  18 C18              |     2.07187  |     1.09639
   24 H24              |  18 C18              |     2.07309  |     1.09703
   25 H25              |  18 C18              |     2.06638  |     1.09348
   26 H26              |  19 C19              |     2.07278  |     1.09687
   27 H27              |  19 C19              |     2.07225  |     1.09659
   28 H28              |  19 C19              |     2.06332  |     1.09186
   29 C29              |  16 N16              |     2.80507  |     1.48438
   30 C30              |  16 N16              |     2.79564  |     1.47939
   31 H31              |  29 C29              |     2.07506  |     1.09807
   32 H32              |  29 C29              |     2.05216  |     1.08596
   33 C33              |  29 C29              |     2.90087  |     1.53508
   34 H34              |  33 C33              |     2.07366  |     1.09733
   35 H35              |  33 C33              |     2.07191  |     1.09641
   36 C36              |  33 C33              |     2.89658  |     1.53280
   37 H37              |  36 C36              |     2.07451  |     1.09778
   38 H38              |  36 C36              |     2.06977  |     1.09527
   39 H39              |  36 C36              |     2.07402  |     1.09753
   40 H40              |  30 C30              |     2.06386  |     1.09215
   41 H41              |  30 C30              |     2.06499  |     1.09274
   42 H42              |  30 C30              |     2.06544  |     1.09299
   43 H43              |   8 C8               |     2.06720  |     1.09392
   44 C44              |   8 C8               |     2.84373  |     1.50484
   45 H45              |  44 C44              |     2.07178  |     1.09634
   46 H46              |  44 C44              |     2.08110  |     1.10127
   47 H47              |  44 C44              |     2.07420  |     1.09762
 ------------------------------------------------------------------------------
                         number of included internuclear distances:         45
 ==============================================================================



 ==============================================================================
                                 internuclear angles
 ------------------------------------------------------------------------------
        center 1       |       center 2       |       center 3       |  degrees
 ------------------------------------------------------------------------------
    2 H2               |   1 C1               |   3 H3               |   108.61
    2 H2               |   1 C1               |   4 H4               |   108.85
    2 H2               |   1 C1               |   5 C5               |   111.66
    3 H3               |   1 C1               |   4 H4               |   106.93
    3 H3               |   1 C1               |   5 C5               |   108.78
    4 H4               |   1 C1               |   5 C5               |   111.86
    1 C1               |   5 C5               |   6 H6               |   117.50
    1 C1               |   5 C5               |   8 C8               |   123.24
    6 H6               |   5 C5               |   8 C8               |   116.56
    9 Cl9              |   7 Ru7              |  10 Cl10             |   179.23
    9 Cl9              |   7 Ru7              |  11 C11              |    91.04
    9 Cl9              |   7 Ru7              |  12 C12              |    87.59
   10 Cl10             |   7 Ru7              |  11 C11              |    89.72
   10 Cl10             |   7 Ru7              |  12 C12              |    92.30
   11 C11              |   7 Ru7              |  12 C12              |   108.47
    5 C5               |   8 C8               |  43 H43              |   117.37
    5 C5               |   8 C8               |  44 C44              |   122.54
   43 H43              |   8 C8               |  44 C44              |   118.19
    7 Ru7              |  11 C11              |  13 H13              |   121.53
    7 Ru7              |  11 C11              |  14 H14              |   121.30
   13 H13              |  11 C11              |  14 H14              |   117.07
    7 Ru7              |  12 C12              |  15 C15              |   110.15
    7 Ru7              |  12 C12              |  16 N16              |   128.39
   15 C15              |  12 C12              |  16 N16              |   121.43
   12 C12              |  15 C15              |  17 C17              |   108.51
   12 C12              |  15 C15              |  18 C18              |   109.71
   12 C12              |  15 C15              |  19 C19              |   112.45
   17 C17              |  15 C15              |  18 C18              |   105.80
   17 C17              |  15 C15              |  19 C19              |   105.72
   18 C18              |  15 C15              |  19 C19              |   114.20
   12 C12              |  16 N16              |  29 C29              |   127.44
   12 C12              |  16 N16              |  30 C30              |   120.42
   29 C29              |  16 N16              |  30 C30              |   112.05
   15 C15              |  17 C17              |  20 H20              |   111.53
   15 C15              |  17 C17              |  21 H21              |   109.12
   15 C15              |  17 C17              |  22 H22              |   111.17
   20 H20              |  17 C17              |  21 H21              |   106.47
   20 H20              |  17 C17              |  22 H22              |   111.29
   21 H21              |  17 C17              |  22 H22              |   107.02
   15 C15              |  18 C18              |  23 H23              |   109.44
   15 C15              |  18 C18              |  24 H24              |   108.95
   15 C15              |  18 C18              |  25 H25              |   114.12
   23 H23              |  18 C18              |  24 H24              |   108.38
   23 H23              |  18 C18              |  25 H25              |   108.17
   24 H24              |  18 C18              |  25 H25              |   107.63
   15 C15              |  19 C19              |  26 H26              |   108.68
   15 C15              |  19 C19              |  27 H27              |   109.56
   15 C15              |  19 C19              |  28 H28              |   114.46
   26 H26              |  19 C19              |  27 H27              |   108.24
   26 H26              |  19 C19              |  28 H28              |   107.16
   27 H27              |  19 C19              |  28 H28              |   108.55
   16 N16              |  29 C29              |  31 H31              |   107.81
   16 N16              |  29 C29              |  32 H32              |   110.14
   16 N16              |  29 C29              |  33 C33              |   112.05
   31 H31              |  29 C29              |  32 H32              |   106.86
   31 H31              |  29 C29              |  33 C33              |   110.12
   32 H32              |  29 C29              |  33 C33              |   109.71
   16 N16              |  30 C30              |  40 H40              |   109.62
   16 N16              |  30 C30              |  41 H41              |   109.28
   16 N16              |  30 C30              |  42 H42              |   110.06
   40 H40              |  30 C30              |  41 H41              |   108.88
   40 H40              |  30 C30              |  42 H42              |   109.90
   41 H41              |  30 C30              |  42 H42              |   109.08
   29 C29              |  33 C33              |  34 H34              |   110.11
   29 C29              |  33 C33              |  35 H35              |   108.99
   29 C29              |  33 C33              |  36 C36              |   110.92
   34 H34              |  33 C33              |  35 H35              |   106.42
   34 H34              |  33 C33              |  36 C36              |   109.81
   35 H35              |  33 C33              |  36 C36              |   110.49
   33 C33              |  36 C36              |  37 H37              |   111.19
   33 C33              |  36 C36              |  38 H38              |   110.93
   33 C33              |  36 C36              |  39 H39              |   111.35
   37 H37              |  36 C36              |  38 H38              |   107.65
   37 H37              |  36 C36              |  39 H39              |   107.78
   38 H38              |  36 C36              |  39 H39              |   107.77
    8 C8               |  44 C44              |  45 H45              |   112.63
    8 C8               |  44 C44              |  46 H46              |   108.56
    8 C8               |  44 C44              |  47 H47              |   110.72
   45 H45              |  44 C44              |  46 H46              |   107.26
   45 H45              |  44 C44              |  47 H47              |   109.15
   46 H46              |  44 C44              |  47 H47              |   108.37
 ------------------------------------------------------------------------------
                            number of included internuclear angles:         81
 ==============================================================================



 ------------------------------------------------------------------------
 dft saddle failed                                                                                  0
 ------------------------------------------------------------------------
 ------------------------------------------------------------------------
  current input line : 
    25: task  dft  saddle
 ------------------------------------------------------------------------
 ------------------------------------------------------------------------
 This type of error is most commonly associated with calculations not reaching 
 convergence criteria
 ------------------------------------------------------------------------
 For more information see the NWChem manual at 
 http://www.nwchem-sw.org/index.php/NWChem_Documentation


 For further details see manual section: 
                                                                                
                                                                                
                                                                                
                   
0:0:dft saddle failed:: -1
(rank:0 hostname:cb100-18.local pid:40610):ARMCI DASSERT fail. ../../ga-5-3/armci/src/common/armci.c:ARMCI_Error():208 cond:0
Last System Error Message from Task 0:: Inappropriate ioctl for device
--------------------------------------------------------------------------
MPI_ABORT was invoked on rank 0 in communicator MPI COMMUNICATOR 4 DUP FROM 0 
with errorcode -1.

NOTE: invoking MPI_ABORT causes Open MPI to kill all MPI processes.
You may or may not see output from other processes, depending on
exactly when Open MPI kills them.
