 argument  1 = M00000138_B_DFT.nw
                                         
                                         
 
 
              Northwest Computational Chemistry Package (NWChem) 6.8
              ------------------------------------------------------
 
 
                    Environmental Molecular Sciences Laboratory
                       Pacific Northwest National Laboratory
                                Richland, WA 99352
 
                              Copyright (c) 1994-2017
                       Pacific Northwest National Laboratory
                            Battelle Memorial Institute
 
             NWChem is an open-source computational chemistry package
                        distributed under the terms of the
                      Educational Community License (ECL) 2.0
             A copy of the license is included with this distribution
                              in the LICENSE.TXT file
 
                                  ACKNOWLEDGMENT
                                  --------------

            This software and its documentation were developed at the
            EMSL at Pacific Northwest National Laboratory, a multiprogram
            national laboratory, operated for the U.S. Department of Energy
            by Battelle under Contract Number DE-AC05-76RL01830. Support
            for this work was provided by the Department of Energy Office
            of Biological and Environmental Research, Office of Basic
            Energy Sciences, and the Office of Advanced Scientific Computing.


           Job information
           ---------------

    hostname        = c24-1.local
    program         = nwchem
    date            = Sat Feb  8 19:18:26 2020

    compiled        = Tue Jun 18 15:29:47 CEST 2019
    source          = /home/installer/eb/eb/eb_tmp/eb-T7cmoP/tmpPlEf2N-NWChem-6.8.revision47
    nwchem branch   = 6.8
    nwchem revision = v6.8-47-gdf6c956
    ga revision     = ga-5.6.3
    use scalapack   = T
    input           = M00000138_B_DFT.nw
    prefix          = M00000138_B_DFT.
    data base       = ./M00000138_B_DFT.db
    status          = startup
    nproc           =      160
    time left       =     -1s



           Memory information
           ------------------

    heap     =   56360956 doubles =    430.0 Mbytes
    stack    =   56360961 doubles =    430.0 Mbytes
    global   =  112721920 doubles =    860.0 Mbytes (distinct from heap & stack)
    total    =  225443837 doubles =   1720.0 Mbytes
    verify   = yes
    hardfail = no 


           Directory information
           ---------------------
 
  0 permanent = .
  0 scratch   = /global/work/marcof/2089805/M00000138_B_DFT
 
 
 
 
                                NWChem Input Module
                                -------------------
 
 
  pbe96 is a nonlocal functional; adding pw91lda local functional. 
                               P2-Step2: SP with DFT
                               ---------------------
 
                                 NWChem DFT Module
                                 -----------------
 
 
                               P2-Step2: SP with DFT
 
 


 Summary of "ao basis" -> "ao basis" (cartesian)
 ------------------------------------------------------------------------------
       Tag                 Description            Shells   Functions and Types
 ---------------- ------------------------------  ------  ---------------------
 H                        lanl2dz ecp                2        2   2s
 C                        lanl2dz ecp                5        9   3s2p
 N                        lanl2dz ecp                5        9   3s2p
 O                        lanl2dz ecp                5        9   3s2p
 F                        lanl2dz ecp                5        9   3s2p
 P                        lanl2dz ecp                4        8   2s2p
 S                        lanl2dz ecp                4        8   2s2p
 Cl                       lanl2dz ecp                4        8   2s2p
 Br                       lanl2dz ecp                4        8   2s2p
 I                        lanl2dz ecp                4        8   2s2p
 Ru1                     user specified              8       24   3s3p2d
 N2                      user specified              6       15   3s2p1d
 N3                      user specified              6       15   3s2p1d
 C4                      user specified              6       15   3s2p1d
 C5                      user specified              6       15   3s2p1d
 N6                      user specified              6       15   3s2p1d
 N7                      user specified              6       15   3s2p1d
 H28                     user specified              3        5   2s1p
 H29                     user specified              3        5   2s1p


  Caching 1-el integrals 
  itol2e modified to match energy
  convergence criterion.
  tol_rho modified to match energy
  convergence criterion.
 
            General Information
            -------------------
          SCF calculation type: DFT
          Wavefunction type:  closed shell.
          No. of atoms     :    71
          No. of electrons :   266
           Alpha electrons :   133
            Beta electrons :   133
          Charge           :     0
          Spin multiplicity:     1
          Use of symmetry is: off; symmetry adaption is: off
          Maximum number of iterations: 500
          This is a Direct SCF calculation.
          AO basis - number of functions:   444
                     number of shells:   258
          Convergence on energy requested:  1.00D-08
          Convergence on density requested:  1.00D-07
          Convergence on gradient requested:  1.00D-06
 
              XC Information
              --------------
          PerdewBurkeErnzerhof Exchange Functional  1.000          
            Perdew 1991 LDA Correlation Functional  1.000 local    
           PerdewBurkeErnz. Correlation Functional  1.000 non-local
 
             Grid Information
             ----------------
          Grid used for XC integration:  xfine     
          Radial quadrature: Mura-Knowles        
          Angular quadrature: Lebedev. 
          Tag              B.-S. Rad. Rad. Pts. Rad. Cut. Ang. Pts.
          ---              ---------- --------- --------- ---------
          Ru1                 1.30      205          14.0      1454
          N2                  0.65      100          17.0      1454
          N3                  0.65      100          16.0      1454
          C4                  0.70      100          16.0      1454
          C5                  0.70      100          16.0      1454
          N6                  0.65      100          16.0      1454
          N7                  0.65      100          16.0      1454
          C8                  0.70      100          17.0      1454
          C9                  0.70      100          18.0      1454
          C10                 0.70      100          18.0      1454
          H11                 0.35      100          16.0      1202
          C12                 0.70      100          17.0      1454
          H13                 0.35      100          16.0      1202
          C14                 0.70      100          17.0      1454
          H15                 0.35      100          17.0      1202
          H16                 0.35      100          16.0      1202
          H17                 0.35      100          16.0      1202
          C18                 0.70      100          16.0      1454
          C19                 0.70      100          17.0      1454
          C20                 0.70      100          18.0      1454
          H21                 0.35      100          15.0      1202
          C22                 0.70      100          18.0      1454
          H23                 0.35      100          16.0      1202
          C24                 0.70      100          17.0      1454
          H25                 0.35      100          17.0      1202
          H26                 0.35      100          16.0      1202
          H27                 0.35      100          16.0      1202
          H28                 0.35      100          16.0      1202
          H29                 0.35      100          16.0      1202
          N30                 0.65      100          17.0      1454
          N31                 0.65      100          17.0      1454
          C32                 0.70      100          17.0      1454
          C33                 0.70      100          17.0      1454
          C34                 0.70      100          17.0      1454
          H35                 0.35      100          16.0      1202
          H36                 0.35      100          16.0      1202
          C37                 0.70      100          17.0      1454
          C38                 0.70      100          18.0      1454
          H39                 0.35      100          16.0      1202
          H40                 0.35      100          17.0      1202
          H41                 0.35      100          16.0      1202
          H42                 0.35      100          17.0      1202
          H43                 0.35      100          17.0      1202
          H44                 0.35      100          16.0      1202
          H45                 0.35      100          17.0      1202
          C46                 0.70      100          18.0      1454
          C47                 0.70      100          16.0      1454
          H48                 0.35      100          17.0      1202
          H49                 0.35      100          17.0      1202
          H50                 0.35      100          16.0      1202
          C51                 0.70      100          18.0      1454
          H52                 0.35      100          17.0      1202
          H53                 0.35      100          17.0      1202
          H54                 0.35      100          18.0      1202
          C55                 0.70      100          17.0      1454
          C56                 0.70      100          17.0      1454
          H57                 0.35      100          16.0      1202
          H58                 0.35      100          16.0      1202
          C59                 0.70      100          17.0      1454
          C60                 0.70      100          18.0      1454
          H61                 0.35      100          16.0      1202
          H62                 0.35      100          19.0      1202
          H63                 0.35      100          16.0      1202
          H64                 0.35      100          17.0      1202
          H65                 0.35      100          17.0      1202
          H66                 0.35      100          15.0      1202
          H67                 0.35      100          16.0      1202
          C68                 0.70      100          17.0      1454
          O69                 0.60      100          16.0      1454
          C70                 0.70      100          17.0      1454
          O71                 0.60      100          17.0      1454
          Grid pruning is: on 
          Number of quadrature shells:  7205
          Spatial weights used:  Erf1
 
          Convergence Information
          -----------------------
          Convergence aids based upon iterative change in 
          total energy or number of iterations. 
          Levelshifting, if invoked, occurs when the 
          HOMO/LUMO gap drops below (HL_TOL):  1.00D-02
          DIIS, if invoked, will attempt to extrapolate 
          using up to (NFOCK): 10 stored Fock matrices.

                    Damping( 0%)  Levelshifting(0.5)       DIIS
                  --------------- ------------------- ---------------
          dE  on:    start            ASAP                start   
          dE off:    2 iters        500 iters           500 iters 

 
      Screening Tolerance Information
      -------------------------------
          Density screening/tol_rho:  1.00D-11
          AO Gaussian exp screening on grid/accAOfunc:  18
          CD Gaussian exp screening on grid/accCDfunc:  20
          XC Gaussian exp screening on grid/accXCfunc:  20
          Schwarz screening/accCoul:  1.00D-09

      Dispersion Parameters
      ---------------------

             DFT-D3 Model   
          s8 scale factor  :        1.000000000000
          sr6 scale factor :        0.722000000000
          sr8 scale factor :        1.217000000000
              vdW contrib  :        1.000000000000


             DFT-D3 Model   
          s8 scale factor  :       -0.066507513145
          sr6 scale factor :
 
      Superposition of Atomic Density Guess
      -------------------------------------
 
 Sum of atomic energies:       -1583.88406190
 
      Non-variational initial energy
      ------------------------------

 Total energy =   -1587.729051
 1-e energy   =  -10735.685517
 2-e energy   =    4839.501467
 HOMO         =      -0.202452
 LUMO         =      -0.136162
 
   Time after variat. SCF:    102.8
   Time prior to 1st pass:    102.8
 Grid integrated density:     266.000027075744
 Requested integration accuracy:   0.10E-07

           Memory utilization after 1st SCF pass: 
           Heap Space remaining (MW):       56.17            56172724
          Stack Space remaining (MW):       56.35            56353116

   convergence    iter        energy       DeltaE   RMS-Dens  Diis-err    time
 ---------------- ----- ----------------- --------- --------- ---------  ------
 d= 0,ls=0.0,diis     1  -1582.6685901878 -5.89D+03  2.35D-02  6.50D+00   112.1
 Grid integrated density:     266.000018756264
 Requested integration accuracy:   0.10E-07
 d= 0,ls=0.5,diis     2  -1572.3740733540  1.03D+01  8.91D-03  5.55D+01   121.3
 Grid integrated density:     266.000021526045
 Requested integration accuracy:   0.10E-07
 d= 0,ls=0.5,diis     3  -1578.0545571522 -5.68D+00  6.29D-03  3.01D+01   130.6
 Grid integrated density:     266.000021950362
 Requested integration accuracy:   0.10E-07
 d= 0,ls=0.5,diis     4  -1581.3156138839 -3.26D+00  3.98D-03  1.29D+01   139.9
 Grid integrated density:     266.000021782817
 Requested integration accuracy:   0.10E-07
 d= 0,ls=0.5,diis     5  -1582.4694162499 -1.15D+00  4.47D-03  5.19D+00   149.2
 Grid integrated density:     266.000022070964
 Requested integration accuracy:   0.10E-07
 d= 0,ls=0.5,diis     6  -1583.1564565629 -6.87D-01  2.84D-03  5.96D-01   158.5
 Grid integrated density:     266.000021830021
 Requested integration accuracy:   0.10E-07
 d= 0,ls=0.5,diis     7  -1583.2978890137 -1.41D-01  1.96D-03  2.64D-01   167.8
 Grid integrated density:     266.000022095087
 Requested integration accuracy:   0.10E-07
  Resetting Diis
 d= 0,ls=0.5,diis     8  -1583.3304043699 -3.25D-02  1.35D-03  4.28D-01   177.0
 Grid integrated density:     266.000018871840
 Requested integration accuracy:   0.10E-07
 d= 0,ls=0.5,diis     9  -1583.3411873914 -1.08D-02  4.32D-03  5.43D-01   188.7
 Grid integrated density:     266.000019097027
 Requested integration accuracy:   0.10E-07
 d= 0,ls=0.5,diis    10  -1583.2710368417  7.02D-02  1.66D-03  1.40D+00   200.4
 Grid integrated density:     266.000018932935
 Requested integration accuracy:   0.10E-07
 d= 0,ls=0.5,diis    11  -1583.3654304235 -9.44D-02  9.04D-04  4.51D-01   212.0
 Grid integrated density:     266.000018865967
 Requested integration accuracy:   0.10E-07
 d= 0,ls=0.5,diis    12  -1583.4053263188 -3.99D-02  5.96D-04  1.26D-01   223.7
 Grid integrated density:     266.000018850233
 Requested integration accuracy:   0.10E-07
 d= 0,ls=0.5,diis    13  -1583.4201852839 -1.49D-02  4.04D-04  2.84D-02   235.4
 Grid integrated density:     266.000018841192
 Requested integration accuracy:   0.10E-07
 d= 0,ls=0.5,diis    14  -1583.4251144082 -4.93D-03  3.13D-04  1.03D-02   247.0
 Grid integrated density:     266.000018835718
 Requested integration accuracy:   0.10E-07
 d= 0,ls=0.5,diis    15  -1583.4276168434 -2.50D-03  2.55D-04  6.12D-03   258.7
 Grid integrated density:     266.000018843377
 Requested integration accuracy:   0.10E-07
 d= 0,ls=0.5,diis    16  -1583.4290065971 -1.39D-03  2.08D-04  6.00D-03   270.4
 Grid integrated density:     266.000018846262
 Requested integration accuracy:   0.10E-07
 d= 0,ls=0.5,diis    17  -1583.4300000804 -9.93D-04  1.75D-04  5.62D-03   282.1
 Grid integrated density:     266.000018843307
 Requested integration accuracy:   0.10E-07
 d= 0,ls=0.5,diis    18  -1583.4307969273 -7.97D-04  1.50D-04  4.55D-03   293.8
 Grid integrated density:     266.000018842510
 Requested integration accuracy:   0.10E-07
 d= 0,ls=0.5,diis    19  -1583.4314315282 -6.35D-04  1.29D-04  3.32D-03   305.5
 Grid integrated density:     266.000018843432
 Requested integration accuracy:   0.10E-07
 d= 0,ls=0.5,diis    20  -1583.4319168195 -4.85D-04  1.10D-04  2.27D-03   317.1
 Grid integrated density:     266.000018844706
 Requested integration accuracy:   0.10E-07
 d= 0,ls=0.5,diis    21  -1583.4322542187 -3.37D-04  9.54D-05  1.67D-03   328.8
 Grid integrated density:     266.000018842639
 Requested integration accuracy:   0.10E-07
 d= 0,ls=0.5,diis    22  -1583.4325178796 -2.64D-04  8.13D-05  1.07D-03   340.4
 Grid integrated density:     266.000018841119
 Requested integration accuracy:   0.10E-07
 d= 0,ls=0.5,diis    23  -1583.4326984513 -1.81D-04  6.91D-05  7.81D-04   352.2
 Grid integrated density:     266.000018842209
 Requested integration accuracy:   0.10E-07
 d= 0,ls=0.5,diis    24  -1583.4328175537 -1.19D-04  5.93D-05  6.93D-04   363.8
 Grid integrated density:     266.000018842260
 Requested integration accuracy:   0.10E-07
 d= 0,ls=0.5,diis    25  -1583.4329097358 -9.22D-05  5.16D-05  5.91D-04   375.5
 Grid integrated density:     266.000018841993
 Requested integration accuracy:   0.10E-07
 d= 0,ls=0.5,diis    26  -1583.4329855937 -7.59D-05  4.48D-05  4.54D-04   387.1
 Grid integrated density:     266.000018841482
 Requested integration accuracy:   0.10E-07
 d= 0,ls=0.5,diis    27  -1583.4330430654 -5.75D-05  3.94D-05  3.46D-04   398.8
 Grid integrated density:     266.000018841253
 Requested integration accuracy:   0.10E-07
 d= 0,ls=0.5,diis    28  -1583.4330891793 -4.61D-05  3.43D-05  2.40D-04   410.5
 Grid integrated density:     266.000018840261
 Requested integration accuracy:   0.10E-07
 d= 0,ls=0.5,diis    29  -1583.4331243441 -3.52D-05  2.98D-05  1.56D-04   422.2
 Grid integrated density:     266.000018839700
 Requested integration accuracy:   0.10E-07
 d= 0,ls=0.5,diis    30  -1583.4331493720 -2.50D-05  2.56D-05  1.10D-04   433.8
 Grid integrated density:     266.000018839242
 Requested integration accuracy:   0.10E-07
 d= 0,ls=0.5,diis    31  -1583.4331668924 -1.75D-05  2.22D-05  8.81D-05   445.5
 Grid integrated density:     266.000018839080
 Requested integration accuracy:   0.10E-07
 d= 0,ls=0.5,diis    32  -1583.4331802179 -1.33D-05  1.91D-05  6.97D-05   457.5
 Grid integrated density:     266.000018839115
 Requested integration accuracy:   0.10E-07
 d= 0,ls=0.5,diis    33  -1583.4331897305 -9.51D-06  1.66D-05  6.00D-05   469.1
 Grid integrated density:     266.000018838968
 Requested integration accuracy:   0.10E-07
 d= 0,ls=0.5,diis    34  -1583.4331970326 -7.30D-06  1.45D-05  5.20D-05   480.7
 Grid integrated density:     266.000018838807
 Requested integration accuracy:   0.10E-07
 d= 0,ls=0.5,diis    35  -1583.4332029022 -5.87D-06  1.29D-05  4.31D-05   492.5
 Grid integrated density:     266.000018838482
 Requested integration accuracy:   0.10E-07
 d= 0,ls=0.5,diis    36  -1583.4332078397 -4.94D-06  1.13D-05  3.27D-05   504.2
 Grid integrated density:     266.000018838293
 Requested integration accuracy:   0.10E-07
 d= 0,ls=0.5,diis    37  -1583.4332117079 -3.87D-06  9.94D-06  2.40D-05   515.9
 Grid integrated density:     266.000018837991
 Requested integration accuracy:   0.10E-07
 d= 0,ls=0.5,diis    38  -1583.4332147257 -3.02D-06  8.67D-06  1.68D-05   527.5
 Grid integrated density:     266.000018837809
 Requested integration accuracy:   0.10E-07
 d= 0,ls=0.5,diis    39  -1583.4332169562 -2.23D-06  7.61D-06  1.23D-05   539.2
 Grid integrated density:     266.000018837678
 Requested integration accuracy:   0.10E-07
 d= 0,ls=0.5,diis    40  -1583.4332186092 -1.65D-06  6.64D-06  9.49D-06   550.9
 Grid integrated density:     266.000018837575
 Requested integration accuracy:   0.10E-07
 d= 0,ls=0.5,diis    41  -1583.4332198119 -1.20D-06  5.79D-06  7.90D-06   562.5
 Grid integrated density:     266.000018837457
 Requested integration accuracy:   0.10E-07
 d= 0,ls=0.5,diis    42  -1583.4332207272 -9.15D-07  5.03D-06  6.74D-06   574.2
 Grid integrated density:     266.000018837407
 Requested integration accuracy:   0.10E-07
 d= 0,ls=0.5,diis    43  -1583.4332214257 -6.99D-07  4.46D-06  5.87D-06   585.9
 Grid integrated density:     266.000018837328
 Requested integration accuracy:   0.10E-07
 d= 0,ls=0.5,diis    44  -1583.4332220087 -5.83D-07  3.97D-06  4.85D-06   597.6
 Grid integrated density:     266.000018837241
 Requested integration accuracy:   0.10E-07
 d= 0,ls=0.5,diis    45  -1583.4332224902 -4.81D-07  3.49D-06  3.83D-06   609.2
 Grid integrated density:     266.000018837127
 Requested integration accuracy:   0.10E-07
 d= 0,ls=0.5,diis    46  -1583.4332228716 -3.81D-07  3.10D-06  2.96D-06   621.0
 Grid integrated density:     266.000018837037
 Requested integration accuracy:   0.10E-07
 d= 0,ls=0.5,diis    47  -1583.4332231815 -3.10D-07  2.75D-06  2.19D-06   632.6
 Grid integrated density:     266.000018836981
 Requested integration accuracy:   0.10E-07
 d= 0,ls=0.5,diis    48  -1583.4332234161 -2.35D-07  2.41D-06  1.68D-06   644.3
 Grid integrated density:     266.000018836921
 Requested integration accuracy:   0.10E-07
 d= 0,ls=0.5,diis    49  -1583.4332235862 -1.70D-07  2.13D-06  1.39D-06   655.9
 Grid integrated density:     266.000018836886
 Requested integration accuracy:   0.10E-07
 d= 0,ls=0.5,diis    50  -1583.4332237224 -1.36D-07  1.89D-06  1.15D-06   667.6
 Grid integrated density:     266.000018836856
 Requested integration accuracy:   0.10E-07
 d= 0,ls=0.5,diis    51  -1583.4332238316 -1.09D-07  1.65D-06  9.31D-07   679.3
 Grid integrated density:     266.000018836823
 Requested integration accuracy:   0.10E-07
 d= 0,ls=0.5,diis    52  -1583.4332239116 -7.99D-08  1.47D-06  7.95D-07   690.9
 Grid integrated density:     266.000018836788
 Requested integration accuracy:   0.10E-07
 d= 0,ls=0.5,diis    53  -1583.4332239797 -6.81D-08  1.32D-06  6.61D-07   702.6
 Grid integrated density:     266.000018836763
 Requested integration accuracy:   0.10E-07
 d= 0,ls=0.5,diis    54  -1583.4332240370 -5.74D-08  1.17D-06  5.19D-07   714.2
 Grid integrated density:     266.000018836735
 Requested integration accuracy:   0.10E-07
 d= 0,ls=0.5,diis    55  -1583.4332240822 -4.51D-08  1.04D-06  4.07D-07   725.9
 Grid integrated density:     266.000018836708
 Requested integration accuracy:   0.10E-07
 d= 0,ls=0.5,diis    56  -1583.4332241178 -3.57D-08  9.28D-07  3.19D-07   737.6
 Grid integrated density:     266.000018836685
 Requested integration accuracy:   0.10E-07
 d= 0,ls=0.5,diis    57  -1583.4332241461 -2.83D-08  8.27D-07  2.51D-07   749.2
 Grid integrated density:     266.000018836664
 Requested integration accuracy:   0.10E-07
 d= 0,ls=0.5,diis    58  -1583.4332241683 -2.22D-08  7.34D-07  1.98D-07   760.9
 Grid integrated density:     266.000018836653
 Requested integration accuracy:   0.10E-07
 d= 0,ls=0.5,diis    59  -1583.4332241855 -1.72D-08  6.56D-07  1.60D-07   772.6
 Grid integrated density:     266.000018836640
 Requested integration accuracy:   0.10E-07
 d= 0,ls=0.5,diis    60  -1583.4332241992 -1.37D-08  5.79D-07  1.31D-07   784.2
 Grid integrated density:     266.000018836623
 Requested integration accuracy:   0.10E-07
 d= 0,ls=0.5,diis    61  -1583.4332242101 -1.10D-08  5.08D-07  1.07D-07   795.9
 Grid integrated density:     266.000018836610
 Requested integration accuracy:   0.10E-07
 d= 0,ls=0.5,diis    62  -1583.4332242182 -8.05D-09  4.60D-07  9.14D-08   807.6
 Grid integrated density:     266.000018836602
 Requested integration accuracy:   0.10E-07
 d= 0,ls=0.5,diis    63  -1583.4332242254 -7.22D-09  4.09D-07  7.27D-08   819.3
 Grid integrated density:     266.000018836594
 Requested integration accuracy:   0.10E-07
 d= 0,ls=0.5,diis    64  -1583.4332242310 -5.64D-09  3.64D-07  5.89D-08   830.9
 Grid integrated density:     266.000018836584
 Requested integration accuracy:   0.10E-07
 d= 0,ls=0.5,diis    65  -1583.4332242355 -4.46D-09  3.26D-07  4.81D-08   842.6
 Grid integrated density:     266.000018836575
 Requested integration accuracy:   0.10E-07
 d= 0,ls=0.5,diis    66  -1583.4332242391 -3.65D-09  2.95D-07  3.89D-08   854.3
 Grid integrated density:     266.000018836569
 Requested integration accuracy:   0.10E-07
 d= 0,ls=0.5,diis    67  -1583.4332242422 -3.02D-09  2.66D-07  3.08D-08   866.0
 Grid integrated density:     266.000018836564
 Requested integration accuracy:   0.10E-07
 d= 0,ls=0.5,diis    68  -1583.4332242446 -2.45D-09  2.38D-07  2.41D-08   877.7
 Grid integrated density:     266.000018836560
 Requested integration accuracy:   0.10E-07
 d= 0,ls=0.5,diis    69  -1583.4332242465 -1.94D-09  2.12D-07  1.91D-08   889.3
 Grid integrated density:     266.000018836555
 Requested integration accuracy:   0.10E-07
 d= 0,ls=0.5,diis    70  -1583.4332242481 -1.53D-09  1.88D-07  1.51D-08   901.0
 Grid integrated density:     266.000018836550
 Requested integration accuracy:   0.10E-07
 d= 0,ls=0.5,diis    71  -1583.4332242492 -1.15D-09  1.69D-07  1.26D-08   913.0
 Grid integrated density:     266.000018836546
 Requested integration accuracy:   0.10E-07
 d= 0,ls=0.5,diis    72  -1583.4332242502 -9.72D-10  1.51D-07  1.01D-08   924.6
 Grid integrated density:     266.000018836542
 Requested integration accuracy:   0.10E-07
 d= 0,ls=0.5,diis    73  -1583.4332242510 -7.62D-10  1.34D-07  8.31D-09   936.3
 Grid integrated density:     266.000018836539
 Requested integration accuracy:   0.10E-07
 d= 0,ls=0.5,diis    74  -1583.4332242516 -6.03D-10  1.21D-07  6.91D-09   947.9
 Grid integrated density:     266.000018836537
 Requested integration accuracy:   0.10E-07
 d= 0,ls=0.5,diis    75  -1583.4332242521 -5.09D-10  1.08D-07  5.60D-09   959.6
 Grid integrated density:     266.000018836535
 Requested integration accuracy:   0.10E-07
 d= 0,ls=0.5,diis    76  -1583.4332242525 -4.00D-10  9.62D-08  4.56D-09   971.3
 Grid integrated density:     266.000018836533
 Requested integration accuracy:   0.10E-07


         Total DFT energy =    -1583.433224252793
      One electron energy =   -10766.346832817213
           Coulomb energy =     5095.466966510688
    Exchange-Corr. energy =     -220.941849032070
 Nuclear repulsion energy =     4308.454998598948

    Dispersion correction =       -0.066507513145

 Numeric. integr. density =      266.000018836533

     Total iterative time =    880.0s


 
                       DFT Final Molecular Orbital Analysis
                       ------------------------------------
...[Orbitals removed]...
 center of mass
 --------------
 x =   0.05375637 y =   0.16516876 z =  -0.00707987

 moments of inertia (a.u.)
 ------------------
       17388.044766019149       -3435.669860049465         924.465263597845
       -3435.669860049465       17084.059710787122       -1474.466997869617
         924.465263597845       -1474.466997869617       18862.817507274041
 
     Multipole analysis of the density
     ---------------------------------
 
     L   x y z        total         alpha         beta         nuclear
     -   - - -        -----         -----         ----         -------
     0   0 0 0     -0.000000   -133.000000   -133.000000    266.000000
 
     1   1 0 0      0.887492      0.919489      0.919489     -0.951486
     1   0 1 0     -1.440522     25.836166     25.836166    -53.112855
     1   0 0 1     -0.294890      0.676538      0.676538     -1.647967
 
     2   2 0 0   -137.386655  -2665.316905  -2665.316905   5193.247155
     2   1 1 0      9.571183   -940.082725   -940.082725   1889.736632
     2   1 0 1     -6.855373    294.985170    294.985170   -596.825712
     2   0 2 0   -145.911373  -2680.777797  -2680.777797   5215.644222
     2   0 1 1      1.645659   -411.475770   -411.475770    824.597199
     2   0 0 2   -193.393137  -2256.495055  -2256.495055   4319.596973
 

 Task  times  cpu:      875.9s     wall:      884.4s
 
 
                                NWChem Input Module
                                -------------------
 
 
 
  Deleted DRIVER restart files 
 
                               P2-Step4: geom. opt.
                               --------------------
 
 
                           NWChem Geometry Optimization
                           ----------------------------
 
 
 
 
                               P2-Step4: geom. opt.
 
 
 maximum gradient threshold         (gmax) =   0.000450
 rms gradient threshold             (grms) =   0.000300
 maximum cartesian step threshold   (xmax) =   0.001800
 rms cartesian step threshold       (xrms) =   0.001200
 fixed trust radius                (trust) =   0.300000
 maximum step size to saddle      (sadstp) =   0.100000
 energy precision                  (eprec) =   5.0D-06
 maximum number of steps          (nptopt) =   75
 initial hessian option           (inhess) =    2
 line search option               (linopt) =    1
 hessian update option            (modupd) =    1
 saddle point option              (modsad) =    0
 initial eigen-mode to follow     (moddir) =    0
 initial variable to follow       (vardir) =    0
 follow first negative mode     (firstneg) =    T
 apply conjugacy                    (opcg) =    F
 source of zmatrix                         =   autoz   


          -------------------
          Energy Minimization
          -------------------

 
 Names of Z-matrix variables 
    1              2              3              4              5         
    6              7              8              9             10         
   11             12             13             14             15         
   16             17             18             19             20         
   21             22             23             24             25         
   26             27             28             29             30         
   31             32             33             34             35         
   36             37             38             39             40         
   41             42             43             44             45         
   46             47             48             49             50         
   51             52             53             54             55         
   56             57             58             59             60         
   61             62             63             64             65         
   66             67             68             69             70         
   71             72             73             74             75         
   76             77             78             79             80         
   81             82             83             84             85         
   86             87             88             89             90         
   91             92             93             94             95         
   96             97             98             99            100         
  101            102            103            104            105         
  106            107            108            109            110         
  111            112            113            114            115         
  116            117            118            119            120         
  121            122            123            124            125         
  126            127            128            129            130         
  131            132            133            134            135         
  136            137            138            139            140         
  141            142            143            144            145         
  146            147            148            149            150         
  151            152            153            154            155         
  156            157            158            159            160         
  161            162            163            164            165         
  166            167            168            169            170         
  171            172            173            174            175         
  176            177            178            179            180         
  181            182            183            184            185         
  186            187            188            189            190         
  191            192            193            194            195         
  196            197            198            199            200         
  201            202            203            204            205         
  206            207            208            209            210         
  211            212            213            214            215         
  216            217            218            219            220         
  221            222            223            224            225         
  226            227            228            229            230         
  231            232            233            234            235         
  236            237            238            239            240         
  241            242            243            244            245         
  246            247            248            249            250         
  251            252            253            254            255         
  256            257            258            259            260         
  261            262            263            264            265         
  266            267            268            269            270         
  271            272            273            274            275         
  276            277            278            279            280         
  281            282            283            284            285         
  286            287            288            289            290         
  291            292            293            294            295         
  296            297            298            299            300         
  301            302            303            304            305         
  306            307            308            309            310         
  311            312            313            314            315         
  316            317            318            319            320         
  321            322            323            324            325         
  326            327            328            329            330         
  331            332            333            334            335         
  336            337            338            339            340         
  341            342            343            344            345         
  346            347            348            349            350         
  351            352            353            354            355         
  356            357            358            359            360         
  361            362            363            364            365         
  366            367            368            369            370         
  371            372            373            374            375         
  376            377            378            379            380         
  381            382            383            384            385         
  386            387            388            389            390         
  391            392            393            394            395         
  396            397            398            399            400         
  401            402            403            404            405         
  406            407         
 
 Variables with the same non-blank name are constrained to be equal
 
 
  Using Cartesian Hessian from previous frequency calculation

          --------
          Step   0
          --------
 
 
                         Geometry "geometry" -> "geometry"
                         ---------------------------------
 
 Output coordinates in angstroms (scale by  1.889725989 to convert to a.u.)
 
  No.       Tag          Charge          X              Y              Z
 ---- ---------------- ---------- -------------- -------------- --------------
    1 Ru1                 44.0000     0.01798231     1.00378980     0.03114524
    2 N2                   7.0000     1.33308231     2.72078980     0.24014524
    3 N3                   7.0000     1.94478231    -0.22571020    -0.18565476
    4 C4                   6.0000    -1.45381769     2.09928980     0.34904524
    5 C5                   6.0000    -1.24951769    -0.62071020    -0.18525476
    6 N6                   7.0000     0.01128231     1.46208980    -2.03735476
    7 N7                   7.0000     0.21808231     0.51898980     2.08414524
    8 C8                   6.0000     2.37728231     2.70498980     1.12214524
    9 C9                   6.0000     1.14648231     3.84928980    -0.50935476
   10 C10                  6.0000     3.24508231     3.79528980     1.28094524
   11 H11                  1.0000     2.49618231     1.78198980     1.71174524
   12 C12                  6.0000     3.04298231     4.94318980     0.50904524
   13 H13                  1.0000     4.05778231     3.74308980     2.00344524
   14 C14                  6.0000     1.98128231     4.97078980    -0.40035476
   15 H15                  1.0000     3.70218231     5.80378980     0.61554524
   16 H16                  1.0000     1.79888231     5.84748980    -1.01915476
   17 H17                  1.0000     0.30258231     3.81748980    -1.21925476
   18 C18                  6.0000     2.29228231    -1.20701020     0.69544524
   19 C19                  6.0000     2.80268231     0.04668980    -1.21385476
   20 C20                  6.0000     3.50388231    -1.91101020     0.60004524
   21 H21                  1.0000     1.56348231    -1.40251020     1.50094524
   22 C22                  6.0000     4.37758231    -1.61361020    -0.44925476
   23 H23                  1.0000     3.75158231    -2.67421020     1.33504524
   24 C24                  6.0000     4.02268231    -0.62531020    -1.37425476
   25 H25                  1.0000     5.32378231    -2.14511020    -0.54655476
   26 H26                  1.0000     4.67998231    -0.37811020    -2.20515476
   27 H27                  1.0000     2.46988231     0.84008980    -1.90625476
   28 H28                  1.0000    -1.38671769     2.85258980     1.15044524
   29 H29                  1.0000    -2.47531769     1.94288980    -0.03525476
   30 N30                  7.0000    -2.40831769    -0.91501020     0.56264524
   31 N31                  7.0000    -1.33661769    -1.48501020    -1.29275476
   32 C32                  6.0000    -2.75631769    -0.40661020     1.91034524
   33 C33                  6.0000    -3.25401769    -1.82821020    -0.14615476
   34 C34                  6.0000    -2.25811769    -1.32971020     3.05664524
   35 H35                  1.0000    -3.85851769    -0.26991020     1.97374524
   36 H36                  1.0000    -2.29001769     0.60328980     2.03644524
   37 C37                  6.0000    -2.44291769    -0.59931020     4.39134524
   38 C38                  6.0000    -2.97771769    -2.68031020     3.08344524
   39 H39                  1.0000    -1.16331769    -1.51281020     2.89634524
   40 H40                  1.0000    -3.48211769    -0.31031020     4.57034524
   41 H41                  1.0000    -1.82421769     0.30938980     4.44974524
   42 H42                  1.0000    -2.13021769    -1.23021020     5.23194524
   43 H43                  1.0000    -2.60431769    -3.30311020     3.90514524
   44 H44                  1.0000    -2.81521769    -3.23861020     2.15484524
   45 H45                  1.0000    -4.05641769    -2.56891020     3.22934524
   46 C46                  6.0000    -4.60721769    -2.23311020     0.28704524
   47 C47                  6.0000    -2.58511769    -2.18491020    -1.30035476
   48 H48                  1.0000    -4.63911769    -3.29731020     0.56644524
   49 H49                  1.0000    -5.33831769    -2.08161020    -0.52305476
   50 H50                  1.0000    -4.96571769    -1.65751020     1.15454524
   51 C51                  6.0000    -3.04421769    -3.05081020    -2.40405476
   52 H52                  1.0000    -2.29151769    -3.81971020    -2.66435476
   53 H53                  1.0000    -3.23681769    -2.46101020    -3.31605476
   54 H54                  1.0000    -3.97481769    -3.57591020    -2.14815476
   55 C55                  6.0000    -0.29821769    -1.68621020    -2.32895476
   56 C56                  6.0000     0.18538231    -3.15541020    -2.44695476
   57 H57                  1.0000     0.56518231    -1.01601020    -2.09165476
   58 H58                  1.0000    -0.70621769    -1.34231020    -3.31155476
   59 C59                  6.0000     1.16008231    -3.26011020    -3.62475476
   60 C60                  6.0000     0.83168231    -3.66251020    -1.15725476
   61 H61                  1.0000    -0.70611769    -3.80571020    -2.66845476
   62 H62                  1.0000     1.50608231    -4.29141020    -3.75845476
   63 H63                  1.0000     2.05018231    -2.63801020    -3.47605476
   64 H64                  1.0000     0.69588231    -2.94651020    -4.56705476
   65 H65                  1.0000     1.01988231    -4.74061020    -1.20525476
   66 H66                  1.0000     0.18968231    -3.47921020    -0.28705476
   67 H67                  1.0000     1.79338231    -3.17361020    -0.96565476
   68 C68                  6.0000    -0.61611769     1.29948980    -3.05125476
   69 O69                  8.0000    -1.13071769     1.19218980    -4.12875476
   70 C70                  6.0000     0.32918231     1.04268980     3.16174524
   71 O71                  8.0000     0.42068231     1.42498980     4.29484524
 
      Atomic Mass 
      ----------- 
 
      Ru1              101.903700
      N2                14.003070
      N3                14.003070
      C4                12.000000
      C5                12.000000
      N6                14.003070
      N7                14.003070
      C8                12.000000
      C9                12.000000
      C10               12.000000
      H11                1.007825
      C12               12.000000
      H13                1.007825
      C14               12.000000
      H15                1.007825
      H16                1.007825
      H17                1.007825
      C18               12.000000
      C19               12.000000
      C20               12.000000
      H21                1.007825
      C22               12.000000
      H23                1.007825
      C24               12.000000
      H25                1.007825
      H26                1.007825
      H27                1.007825
      H28                1.007825
      H29                1.007825
      N30               14.003070
      N31               14.003070
      C32               12.000000
      C33               12.000000
      C34               12.000000
      H35                1.007825
      H36                1.007825
      C37               12.000000
      C38               12.000000
      H39                1.007825
      H40                1.007825
      H41                1.007825
      H42                1.007825
      H43                1.007825
      H44                1.007825
      H45                1.007825
      C46               12.000000
      C47               12.000000
      H48                1.007825
      H49                1.007825
      H50                1.007825
      C51               12.000000
      H52                1.007825
      H53                1.007825
      H54                1.007825
      C55               12.000000
      C56               12.000000
      H57                1.007825
      H58                1.007825
      C59               12.000000
      C60               12.000000
      H61                1.007825
      H62                1.007825
      H63                1.007825
      H64                1.007825
      H65                1.007825
      H66                1.007825
      H67                1.007825
      C68               12.000000
      O69               15.994910
      C70               12.000000
      O71               15.994910
 

 Effective nuclear repulsion energy (a.u.)    5336.1765340223

            Nuclear Dipole moment (a.u.) 
            ----------------------------
        X                 Y               Z
 ---------------- ---------------- ----------------
     0.0000000000     0.0000000000    -0.0000000000
 
 
                                 NWChem DFT Module
                                 -----------------
 
 
                               P2-Step4: geom. opt.
 
 


 Summary of "ao basis" -> "ao basis" (cartesian)
 ------------------------------------------------------------------------------
       Tag                 Description            Shells   Functions and Types
 ---------------- ------------------------------  ------  ---------------------
 H                        lanl2dz ecp                2        2   2s
 C                        lanl2dz ecp                5        9   3s2p
 N                        lanl2dz ecp                5        9   3s2p
 O                        lanl2dz ecp                5        9   3s2p
 F                        lanl2dz ecp                5        9   3s2p
 P                        lanl2dz ecp                4        8   2s2p
 S                        lanl2dz ecp                4        8   2s2p
 Cl                       lanl2dz ecp                4        8   2s2p
 Br                       lanl2dz ecp                4        8   2s2p
 I                        lanl2dz ecp                4        8   2s2p
 Ru1                     user specified              8       24   3s3p2d
 N2                      user specified              6       15   3s2p1d
 N3                      user specified              6       15   3s2p1d
 C4                      user specified              6       15   3s2p1d
 C5                      user specified              6       15   3s2p1d
 N6                      user specified              6       15   3s2p1d
 N7                      user specified              6       15   3s2p1d
 H28                     user specified              3        5   2s1p
 H29                     user specified              3        5   2s1p


  Caching 1-el integrals 
 
            General Information
            -------------------
          SCF calculation type: DFT
          Wavefunction type:  closed shell.
          No. of atoms     :    71
          No. of electrons :   266
           Alpha electrons :   133
            Beta electrons :   133
          Charge           :     0
          Spin multiplicity:     1
          Use of symmetry is: off; symmetry adaption is: off
          Maximum number of iterations: 500
          This is a Direct SCF calculation.
          AO basis - number of functions:   444
                     number of shells:   258
          Convergence on energy requested:  1.00D-08
          Convergence on density requested:  1.00D-07
          Convergence on gradient requested:  1.00D-06
 
              XC Information
              --------------
          PerdewBurkeErnzerhof Exchange Functional  1.000          
            Perdew 1991 LDA Correlation Functional  1.000 local    
           PerdewBurkeErnz. Correlation Functional  1.000 non-local
 
             Grid Information
             ----------------
          Grid used for XC integration:  xfine     
          Radial quadrature: Mura-Knowles        
          Angular quadrature: Lebedev. 
          Tag              B.-S. Rad. Rad. Pts. Rad. Cut. Ang. Pts.
          ---              ---------- --------- --------- ---------
          Ru1                 1.30      205          16.0      1454
          N2                  0.65      100          18.0      1454
          N3                  0.65      100          17.0      1454
          C4                  0.70      100          18.0      1454
          C5                  0.70      100          17.0      1454
          N6                  0.65      100          18.0      1454
          N7                  0.65      100          17.0      1454
          C8                  0.70      100          19.0      1454
          C9                  0.70      100          20.0      1454
          C10                 0.70      100          20.0      1454
          H11                 0.35      100          17.0      1202
          C12                 0.70      100          19.0      1454
          H13                 0.35      100          17.0      1202
          C14                 0.70      100          19.0      1454
          H15                 0.35      100          19.0      1202
          H16                 0.35      100          18.0      1202
          H17                 0.35      100          17.0      1202
          C18                 0.70      100          17.0      1454
          C19                 0.70      100          19.0      1454
          C20                 0.70      100          19.0      1454
          H21                 0.35      100          17.0      1202
          C22                 0.70      100          20.0      1454
          H23                 0.35      100          17.0      1202
          C24                 0.70      100          19.0      1454
          H25                 0.35      100          19.0      1202
          H26                 0.35      100          17.0      1202
          H27                 0.35      100          17.0      1202
          H28                 0.35      100          17.0      1202
          H29                 0.35      100          17.0      1202
          N30                 0.65      100          18.0      1454
          N31                 0.65      100          18.0      1454
          C32                 0.70      100          19.0      1454
          C33                 0.70      100          19.0      1454
          C34                 0.70      100          19.0      1454
          H35                 0.35      100          17.0      1202
          H36                 0.35      100          17.0      1202
          C37                 0.70      100          19.0      1454
          C38                 0.70      100          20.0      1454
          H39                 0.35      100          17.0      1202
          H40                 0.35      100          19.0      1202
          H41                 0.35      100          18.0      1202
          H42                 0.35      100          19.0      1202
          H43                 0.35      100          19.0      1202
          H44                 0.35      100          17.0      1202
          H45                 0.35      100          19.0      1202
          C46                 0.70      100          19.0      1454
          C47                 0.70      100          18.0      1454
          H48                 0.35      100          19.0      1202
          H49                 0.35      100          19.0      1202
          H50                 0.35      100          18.0      1202
          C51                 0.70      100          20.0      1454
          H52                 0.35      100          19.0      1202
          H53                 0.35      100          18.0      1202
          H54                 0.35      100          20.0      1202
          C55                 0.70      100          19.0      1454
          C56                 0.70      100          19.0      1454
          H57                 0.35      100          17.0      1202
          H58                 0.35      100          17.0      1202
          C59                 0.70      100          20.0      1454
          C60                 0.70      100          20.0      1454
          H61                 0.35      100          18.0      1202
          H62                 0.35      100          20.0      1202
          H63                 0.35      100          17.0      1202
          H64                 0.35      100          19.0      1202
          H65                 0.35      100          19.0      1202
          H66                 0.35      100          17.0      1202
          H67                 0.35      100          17.0      1202
          C68                 0.70      100          19.0      1454
          O69                 0.60      100          18.0      1454
          C70                 0.70      100          19.0      1454
          O71                 0.60      100          18.0      1454
          Grid pruning is: on 
          Number of quadrature shells:  7205
          Spatial weights used:  Erf1
 
          Convergence Information
          -----------------------
          Convergence aids based upon iterative change in 
          total energy or number of iterations. 
          Levelshifting, if invoked, occurs when the 
          HOMO/LUMO gap drops below (HL_TOL):  1.00D-02
          DIIS, if invoked, will attempt to extrapolate 
          using up to (NFOCK): 10 stored Fock matrices.

                    Damping( 0%)  Levelshifting(0.5)       DIIS
                  --------------- ------------------- ---------------
          dE  on:    start            ASAP                start   
          dE off:    2 iters        500 iters           500 iters 

 
      Screening Tolerance Information
      -------------------------------
          Density screening/tol_rho:  1.00D-11
          AO Gaussian exp screening on grid/accAOfunc:  18
          CD Gaussian exp screening on grid/accCDfunc:  20
          XC Gaussian exp screening on grid/accXCfunc:  20
          Schwarz screening/accCoul:  1.00D-12

      Dispersion Parameters
      ---------------------

             DFT-D3 Model   
          s8 scale factor  :        1.000000000000
          sr6 scale factor :        0.722000000000
          sr8 scale factor :        1.217000000000
              vdW contrib  :        1.000000000000


             DFT-D3 Model   
          s8 scale factor  :       -0.066507513145
          sr6 scale factor :

 Loading old vectors from job with title :

P2-Step3: initial Hessian and frequencies

   Time after variat. SCF:   4551.1
   Time prior to 1st pass:   4551.1
 Grid integrated density:     266.000018830468
 Requested integration accuracy:   0.10E-13

           Memory utilization after 1st SCF pass: 
           Heap Space remaining (MW):       56.17            56172724
          Stack Space remaining (MW):       56.35            56353116

   convergence    iter        energy       DeltaE   RMS-Dens  Diis-err    time
 ---------------- ----- ----------------- --------- --------- ---------  ------
 d= 0,ls=0.0,diis     1  -1583.4332241331 -5.89D+03  7.33D-08  4.46D-11  4564.4
 Grid integrated density:     266.000018830459
 Requested integration accuracy:   0.10E-13
 d= 0,ls=0.0,diis     2  -1583.4332241331  6.64D-11  7.22D-08  5.96D-10  4577.5


         Total DFT energy =    -1583.433224133075
      One electron energy =   -10766.347311064266
           Coulomb energy =     5095.467463436838
    Exchange-Corr. energy =     -220.941867591448
 Nuclear repulsion energy =     4308.454998598948

    Dispersion correction =       -0.066507513145

 Numeric. integr. density =      266.000018830459

     Total iterative time =     26.4s


 
                       DFT Final Molecular Orbital Analysis
                       ------------------------------------
...[Orbitals removed]...
 center of mass
 --------------
 x =   0.05375637 y =   0.16516876 z =  -0.00707987

 moments of inertia (a.u.)
 ------------------
       17388.044766019149       -3435.669860049465         924.465263597845
       -3435.669860049465       17084.059710787122       -1474.466997869617
         924.465263597845       -1474.466997869617       18862.817507274041
 
     Multipole analysis of the density
     ---------------------------------
 
     L   x y z        total         alpha         beta         nuclear
     -   - - -        -----         -----         ----         -------
     0   0 0 0      0.000000   -133.000000   -133.000000    266.000000
 
     1   1 0 0      0.887496      0.919491      0.919491     -0.951486
     1   0 1 0     -1.440458     25.836198     25.836198    -53.112855
     1   0 0 1     -0.294866      0.676551      0.676551     -1.647967
 
     2   2 0 0   -137.385818  -2665.316487  -2665.316487   5193.247155
     2   1 1 0      9.571228   -940.082702   -940.082702   1889.736632
     2   1 0 1     -6.855505    294.985104    294.985104   -596.825712
     2   0 2 0   -145.910309  -2680.777265  -2680.777265   5215.644222
     2   0 1 1      1.645770   -411.475714   -411.475714    824.597199
     2   0 0 2   -193.393752  -2256.495363  -2256.495363   4319.596973
 
 
            General Information
            -------------------
          SCF calculation type: DFT
          Wavefunction type:  closed shell.
          No. of atoms     :    71
          No. of electrons :   266
           Alpha electrons :   133
            Beta electrons :   133
          Charge           :     0
          Spin multiplicity:     1
          Use of symmetry is: off; symmetry adaption is: off
          Maximum number of iterations: 500
          This is a Direct SCF calculation.
          AO basis - number of functions:   444
                     number of shells:   258
          Convergence on energy requested:  1.00D-08
          Convergence on density requested:  1.00D-07
          Convergence on gradient requested:  1.00D-06
 
              XC Information
              --------------
          PerdewBurkeErnzerhof Exchange Functional  1.000          
            Perdew 1991 LDA Correlation Functional  1.000 local    
           PerdewBurkeErnz. Correlation Functional  1.000 non-local
 
             Grid Information
             ----------------
          Grid used for XC integration:  xfine     
          Radial quadrature: Mura-Knowles        
          Angular quadrature: Lebedev. 
          Tag              B.-S. Rad. Rad. Pts. Rad. Cut. Ang. Pts.
          ---              ---------- --------- --------- ---------
          Ru1                 1.30      205          16.0      1454
          N2                  0.65      100          18.0      1454
          N3                  0.65      100          17.0      1454
          C4                  0.70      100          18.0      1454
          C5                  0.70      100          17.0      1454
          N6                  0.65      100          18.0      1454
          N7                  0.65      100          17.0      1454
          C8                  0.70      100          19.0      1454
          C9                  0.70      100          20.0      1454
          C10                 0.70      100          20.0      1454
          H11                 0.35      100          17.0      1202
          C12                 0.70      100          19.0      1454
          H13                 0.35      100          17.0      1202
          C14                 0.70      100          19.0      1454
          H15                 0.35      100          19.0      1202
          H16                 0.35      100          18.0      1202
          H17                 0.35      100          17.0      1202
          C18                 0.70      100          17.0      1454
          C19                 0.70      100          19.0      1454
          C20                 0.70      100          19.0      1454
          H21                 0.35      100          17.0      1202
          C22                 0.70      100          20.0      1454
          H23                 0.35      100          17.0      1202
          C24                 0.70      100          19.0      1454
          H25                 0.35      100          19.0      1202
          H26                 0.35      100          17.0      1202
          H27                 0.35      100          17.0      1202
          H28                 0.35      100          17.0      1202
          H29                 0.35      100          17.0      1202
          N30                 0.65      100          18.0      1454
          N31                 0.65      100          18.0      1454
          C32                 0.70      100          19.0      1454
          C33                 0.70      100          19.0      1454
          C34                 0.70      100          19.0      1454
          H35                 0.35      100          17.0      1202
          H36                 0.35      100          17.0      1202
          C37                 0.70      100          19.0      1454
          C38                 0.70      100          20.0      1454
          H39                 0.35      100          17.0      1202
          H40                 0.35      100          19.0      1202
          H41                 0.35      100          18.0      1202
          H42                 0.35      100          19.0      1202
          H43                 0.35      100          19.0      1202
          H44                 0.35      100          17.0      1202
          H45                 0.35      100          19.0      1202
          C46                 0.70      100          19.0      1454
          C47                 0.70      100          18.0      1454
          H48                 0.35      100          19.0      1202
          H49                 0.35      100          19.0      1202
          H50                 0.35      100          18.0      1202
          C51                 0.70      100          20.0      1454
          H52                 0.35      100          19.0      1202
          H53                 0.35      100          18.0      1202
          H54                 0.35      100          20.0      1202
          C55                 0.70      100          19.0      1454
          C56                 0.70      100          19.0      1454
          H57                 0.35      100          17.0      1202
          H58                 0.35      100          17.0      1202
          C59                 0.70      100          20.0      1454
          C60                 0.70      100          20.0      1454
          H61                 0.35      100          18.0      1202
          H62                 0.35      100          20.0      1202
          H63                 0.35      100          17.0      1202
          H64                 0.35      100          19.0      1202
          H65                 0.35      100          19.0      1202
          H66                 0.35      100          17.0      1202
          H67                 0.35      100          17.0      1202
          C68                 0.70      100          19.0      1454
          O69                 0.60      100          18.0      1454
          C70                 0.70      100          19.0      1454
          O71                 0.60      100          18.0      1454
          Grid pruning is: on 
          Number of quadrature shells:  7205
          Spatial weights used:  Erf1
 
          Convergence Information
          -----------------------
          Convergence aids based upon iterative change in 
          total energy or number of iterations. 
          Levelshifting, if invoked, occurs when the 
          HOMO/LUMO gap drops below (HL_TOL):  1.00D-02
          DIIS, if invoked, will attempt to extrapolate 
          using up to (NFOCK): 10 stored Fock matrices.

                    Damping( 0%)  Levelshifting(0.5)       DIIS
                  --------------- ------------------- ---------------
          dE  on:    start            ASAP                start   
          dE off:    2 iters        500 iters           500 iters 

 
      Screening Tolerance Information
      -------------------------------
          Density screening/tol_rho:  1.00D-11
          AO Gaussian exp screening on grid/accAOfunc:  18
          CD Gaussian exp screening on grid/accCDfunc:  20
          XC Gaussian exp screening on grid/accXCfunc:  20
          Schwarz screening/accCoul:  1.00D-12

 
 
                            NWChem DFT Gradient Module
                            --------------------------
 
 
                               P2-Step4: geom. opt.
 
 

  charge          =   0.00
  wavefunction    = closed shell



                         DFT ENERGY GRADIENTS

    atom               coordinates                        gradient
                 x          y          z           x          y          z
   1 Ru1     0.033982   1.896888   0.058856    0.007039  -0.000690  -0.007234
   2 N2      2.519160   5.141547   0.453809    0.000253   0.001350  -0.001658
   3 N3      3.675106  -0.426530  -0.350837    0.002254   0.002692   0.003032
   4 C4     -2.747317   3.967082   0.659600   -0.002542   0.016171  -0.008152
   5 C5     -2.361246  -1.172972  -0.350081    0.007689   0.005964   0.006749
   6 N6      0.021320   2.762949  -3.850042   -0.014554   0.003984  -0.028919
   7 N7      0.412116   0.980749   3.938463   -0.003431   0.004921   0.032459
   8 C8      4.492412   5.111690   2.120547    0.003490   0.007057  -0.000053
   9 C9      2.166537   7.274103  -0.962541    0.006903   0.005197   0.002857
  10 C10     6.132316   7.172058   2.420636   -0.002054   0.006138  -0.005102
  11 H11     4.717101   3.367472   3.234729    0.001128  -0.004633   0.003155
  12 C12     5.750403   9.341274   0.961956   -0.006563  -0.008625  -0.000754
  13 H13     7.668097   7.073414   3.785963   -0.002277   0.001497  -0.002560
  14 C14     3.744081   9.393431  -0.756561    0.005320  -0.001182   0.004955
  15 H15     6.996110  10.967572   1.163212   -0.002479  -0.003229  -0.000431
  16 H16     3.399395  11.050153  -1.925923    0.001788  -0.002441   0.002569
  17 H17     0.571798   7.214010  -2.304057   -0.005337   0.000730  -0.003905
  18 C18     4.331785  -2.280919   1.314201    0.006496  -0.004923  -0.004051
  19 C19     5.296302   0.088231  -2.293853    0.006123  -0.006773  -0.001288
  20 C20     6.621377  -3.611286   1.133921    0.004169   0.000796  -0.006709
  21 H21     2.954553  -2.650360   2.836375   -0.004023  -0.002372   0.004435
  22 C22     8.272431  -3.049281  -0.848968   -0.010476   0.005316   0.000957
  23 H23     7.089463  -5.053525   2.522870    0.000353   0.002929  -0.002973
  24 C24     7.601767  -1.181665  -2.596965    0.000781  -0.004632   0.005833
  25 H25    10.060490  -4.053671  -1.032839   -0.003391   0.001995   0.000452
  26 H26     8.843884  -0.714525  -4.167138   -0.001722  -0.001977   0.003603
  27 H27     4.667401   1.587540  -3.602299   -0.001211   0.004363  -0.002862
  28 H28    -2.620516   5.390613   2.174026   -0.000227  -0.010058   0.000221
  29 H29    -4.677672   3.671529  -0.066622    0.003888  -0.001997   0.005273
  30 N30    -4.551061  -1.729119   1.063245   -0.001926  -0.000301   0.015931
  31 N31    -2.525841  -2.806262  -2.442952    0.009608  -0.006907  -0.014206
  32 C32    -5.208685  -0.768382   3.610029   -0.008510  -0.010675   0.000323
  33 C33    -6.149202  -3.454816  -0.276192   -0.019856  -0.008507   0.001327
  34 C34    -4.267224  -2.512788   5.776222   -0.006355  -0.001079   0.001973
  35 H35    -7.291541  -0.510056   3.729838   -0.004424   0.000752  -0.000110
  36 H36    -4.327506   1.140052   3.848323    0.002651   0.010015   0.002480
  37 C37    -4.616445  -1.132532   8.298439   -0.008599  -0.005379  -0.003537
  38 C38    -5.627070  -5.065052   5.826867   -0.002951   0.004731   0.001894
  39 H39    -2.198352  -2.858797   5.473299    0.008780  -0.004023   0.000181
  40 H40    -6.580248  -0.586401   8.636700    0.009620  -0.001288   0.000262
  41 H41    -3.447272   0.584662   8.408799   -0.000140  -0.002085   0.000877
  42 H42    -4.025528  -2.324760   9.886943   -0.001081   0.004761  -0.003841
  43 H43    -4.921447  -6.241973   7.379654   -0.002899   0.002480  -0.004661
  44 H44    -5.319990  -6.120086   4.072067   -0.000674   0.003552   0.004993
  45 H45    -7.665518  -4.854536   6.102578    0.008038  -0.001973  -0.001286
  46 C46    -8.706379  -4.219966   0.542437    0.013533   0.003511  -0.002884
  47 C47    -4.885164  -4.128882  -2.457314   -0.011657  -0.010369  -0.013292
  48 H48    -8.766661  -6.231013   1.070426    0.001988   0.002959  -0.001711
  49 H49   -10.087958  -3.933673  -0.988430    0.001545   0.000097   0.001880
  50 H50    -9.383846  -3.132240   2.181774   -0.000072   0.001014   0.000790
  51 C51    -5.752737  -5.765195  -4.543005    0.002995   0.008258   0.010970
  52 H52    -4.330341  -7.218206  -5.034900    0.007919  -0.000856   0.000320
  53 H53    -6.116699  -4.650635  -6.266435    0.000036  -0.000590   0.003676
  54 H54    -7.511316  -6.757490  -4.059424    0.002298  -0.000386  -0.002169
  55 C55    -0.563550  -3.186475  -4.401086   -0.003234  -0.008459   0.005860
  56 C56     0.350322  -5.962861  -4.624074    0.007131   0.002592   0.001704
  57 H57     1.068040  -1.919981  -3.952654    0.010711   0.007408   0.001040
  58 H58    -1.334558  -2.536598  -6.257931   -0.002081   0.002854  -0.005297
  59 C59     2.192238  -6.160715  -6.849793    0.000870   0.001646   0.003807
  60 C60     1.571652  -6.921141  -2.186894    0.000939   0.001101  -0.003901
  61 H61    -1.334369  -7.191749  -5.042648   -0.015385  -0.006058  -0.001095
  62 H62     2.846083  -8.109589  -7.102450   -0.001615   0.006192   0.000001
  63 H63     3.874283  -4.985116  -6.568791   -0.004962  -0.004988  -0.003032
  64 H64     1.315027  -5.568097  -8.630482    0.003254  -0.002266   0.005390
  65 H65     1.927298  -8.958454  -2.277601   -0.000795   0.006798   0.001420
  66 H66     0.358448  -6.574754  -0.542455    0.003682  -0.001318  -0.004729
  67 H67     3.389001  -5.997254  -1.824823   -0.003516  -0.002850   0.000927
  68 C68    -1.164294   2.455680  -5.766035   -0.018739  -0.006137  -0.030805
  69 O69    -2.136747   2.252912  -7.802215    0.030118   0.007075   0.054861
  70 C70     0.622064   1.970398   5.974832    0.001702   0.014757   0.032323
  71 O71     0.794974   2.692840   8.116081   -0.005333  -0.023627  -0.058556
 
                 ----------------------------------------
                 |  Time  |  1-e(secs)   |  2-e(secs)   |
                 ----------------------------------------
                 |  CPU   |       0.11   |      29.41   |
                 ----------------------------------------
                 |  WALL  |       0.12   |      40.71   |
                 ----------------------------------------

@ Step       Energy      Delta E   Gmax     Grms     Xrms     Xmax   Walltime
@ ---- ---------------- -------- -------- -------- -------- -------- --------
@    0   -1583.43322413  0.0D+00  0.06326  0.00583  0.00000  0.00000   4641.8
                                                                    



                                Z-matrix (autoz)
                                -------- 

 Units are Angstrom for bonds and degrees for angles
 
      Type          Name      I     J     K     L     M      Value     Gradient
      ----------- --------  ----- ----- ----- ----- ----- ---------- ----------
    1 Stretch                  1     2                       2.17285    0.00149
    2 Stretch                  1     3                       2.29592    0.00080
    3 Stretch                  1     4                       1.86209    0.00108
    4 Stretch                  1     5                       2.07181    0.00040
    5 Stretch                  1     6                       2.11867    0.00585
    6 Stretch                  1     7                       2.11893    0.00637
    7 Stretch                  2     8                       1.36694   -0.00032
    8 Stretch                  2     9                       1.36751   -0.00045
    9 Stretch                  3    18                       1.36383    0.00042
   10 Stretch                  3    19                       1.36652   -0.00092
   11 Stretch                  4    28                       1.10191   -0.00673
   12 Stretch                  4    29                       1.10255   -0.00516
   13 Stretch                  5    30                       1.41024    0.01310
   14 Stretch                  5    31                       1.40754    0.00925
   15 Stretch                  6    68                       1.20335   -0.02637
   16 Stretch                  7    70                       1.20326   -0.02787
   17 Stretch                  8    10                       1.40252   -0.00495
   18 Stretch                  8    11                       1.10168    0.00569
   19 Stretch                  9    14                       1.40233   -0.00534
   20 Stretch                  9    17                       1.10324    0.00657
   21 Stretch                 10    12                       1.39798   -0.01025
   22 Stretch                 10    13                       1.08867   -0.00347
   23 Stretch                 12    14                       1.39820   -0.01002
   24 Stretch                 12    15                       1.08927   -0.00409
   25 Stretch                 14    16                       1.08848   -0.00373
   26 Stretch                 18    20                       1.40453   -0.00546
   27 Stretch                 18    21                       1.10372    0.00631
   28 Stretch                 19    24                       1.40204   -0.00593
   29 Stretch                 19    27                       1.10438    0.00529
   30 Stretch                 20    22                       1.39744   -0.01064
   31 Stretch                 20    23                       1.08814   -0.00398
   32 Stretch                 22    24                       1.39940   -0.00994
   33 Stretch                 22    25                       1.08961   -0.00396
   34 Stretch                 24    26                       1.08791   -0.00424
   35 Stretch                 30    32                       1.48185    0.00105
   36 Stretch                 30    33                       1.43232    0.00511
   37 Stretch                 31    47                       1.43132    0.00160
   38 Stretch                 31    55                       1.48070   -0.00533
   39 Stretch                 32    34                       1.55381   -0.00094
   40 Stretch                 32    35                       1.11245    0.00447
   41 Stretch                 32    36                       1.11948    0.01042
   42 Stretch                 33    46                       1.47742   -0.01821
   43 Stretch                 33    47                       1.38088    0.00615
   44 Stretch                 34    37                       1.53266   -0.00731
   45 Stretch                 34    38                       1.53058   -0.00845
   46 Stretch                 34    39                       1.12152    0.00920
   47 Stretch                 37    40                       1.09339   -0.00944
   48 Stretch                 37    41                       1.10088   -0.00175
   49 Stretch                 37    42                       1.09655   -0.00599
   50 Stretch                 38    43                       1.09658   -0.00589
   51 Stretch                 38    44                       1.09563   -0.00614
   52 Stretch                 38    45                       1.09421   -0.00830
   53 Stretch                 46    48                       1.10073   -0.00335
   54 Stretch                 46    49                       1.10169   -0.00239
   55 Stretch                 46    50                       1.10109    0.00118
   56 Stretch                 47    51                       1.47605   -0.01746
   57 Stretch                 51    52                       1.10703    0.00590
   58 Stretch                 51    53                       1.10304   -0.00336
   59 Stretch                 51    54                       1.09874   -0.00227
   60 Stretch                 55    56                       1.55124   -0.00408
   61 Stretch                 55    57                       1.11845    0.01293
   62 Stretch                 55    58                       1.11814    0.00629
   63 Stretch                 56    59                       1.53239   -0.00634
   64 Stretch                 56    60                       1.52911   -0.00641
   65 Stretch                 56    61                       1.12549    0.01590
   66 Stretch                 59    62                       1.09598   -0.00634
   67 Stretch                 59    63                       1.09608   -0.00727
   68 Stretch                 59    64                       1.09625   -0.00666
   69 Stretch                 60    65                       1.09546   -0.00689
   70 Stretch                 60    66                       1.09682   -0.00613
   71 Stretch                 60    67                       1.09572   -0.00420
   72 Stretch                 68    69                       1.19889   -0.06287
   73 Stretch                 70    71                       1.19935   -0.06326
   74 Bend                     1     2     8               121.01566    0.00158
   75 Bend                     1     2     9               121.11736    0.00150
   76 Bend                     1     3    18               122.55709    0.00171
   77 Bend                     1     3    19               119.41731    0.00141
   78 Bend                     1     4    28               118.56952   -0.00209
   79 Bend                     1     4    29               126.11017    0.00060
   80 Bend                     1     5    30               127.65773    0.00289
   81 Bend                     1     5    31               126.97882    0.00014
   82 Bend                     1     6    68               142.65790   -0.00003
   83 Bend                     1     7    70               140.97238    0.00075
   84 Bend                     2     1     3                85.65937    0.00272
   85 Bend                     2     1     4                89.83219   -0.00207
   86 Bend                     2     1     6                85.69245   -0.00129
   87 Bend                     2     1     7                91.74465    0.00335
   88 Bend                     2     8    10               122.46121   -0.00257
   89 Bend                     2     8    11               115.94119    0.00157
   90 Bend                     2     9    14               122.42079   -0.00227
   91 Bend                     2     9    17               115.67465    0.00151
   92 Bend                     3     1     4               173.98998    0.00073
   93 Bend                     3     1     5                94.79940   -0.00296
   94 Bend                     3     1     6                91.50714    0.00029
   95 Bend                     3     1     7                83.66827    0.00132
   96 Bend                     3    18    20               122.45003   -0.00255
   97 Bend                     3    18    21               115.51127    0.00178
   98 Bend                     3    19    24               122.46757   -0.00246
   99 Bend                     3    19    27               115.19866    0.00123
  100 Bend                     4     1     5                89.74644    0.00227
  101 Bend                     4     1     6                92.11573   -0.00071
  102 Bend                     4     1     7                92.51236   -0.00072
  103 Bend                     5     1     6                93.76709    0.00186
  104 Bend                     5     1     7                88.82971   -0.00393
  105 Bend                     5    30    32               127.13518    0.00499
  106 Bend                     5    30    33               110.84107   -0.00289
[...]
  393 Torsion                 59    56    60    65         -58.48249    8.58185
  394 Torsion                 59    56    60    66        -178.80094    8.16780
  395 Torsion                 59    56    60    67          61.15621    8.43376
  396 Torsion                 60    56    59    62          60.48633    3.15188
  397 Torsion                 60    56    59    63         -59.12121    3.18993
  398 Torsion                 60    56    59    64        -179.16615    3.63807
  399 Torsion                 61    56    59    62         -57.94892    3.03440
  400 Torsion                 61    56    59    63        -177.55646    3.07246
  401 Torsion                 61    56    59    64          62.39860    3.52060
  402 Torsion                 61    56    60    65          59.79131    8.39479
  403 Torsion                 61    56    60    66         -60.52714    7.98074
  404 Torsion                 61    56    60    67         179.43001    8.24670
  405 Torsion                 68     6     7    70         -95.00340   33.51763
  406 Torsion                  6    68     1     7         -96.57604   63.26330
  407 Torsion                  6     1    70     7        -111.98239   46.20732
 
 ==============================================================================
                                internuclear distances
 ------------------------------------------------------------------------------
       center one      |      center two      | atomic units |  angstroms
 ------------------------------------------------------------------------------
    2 N2               |   1 Ru1              |     4.11685  |     2.17855
    3 N3               |   1 Ru1              |     4.48954  |     2.37576
    4 C4               |   1 Ru1              |     3.50126  |     1.85279
    5 C5               |   1 Ru1              |     3.88138  |     2.05394
    6 N6               |   1 Ru1              |     3.95206  |     2.09134
    7 N7               |   1 Ru1              |     3.89243  |     2.05979
    8 C8               |   2 N2               |     2.57723  |     1.36381
    9 C9               |   2 N2               |     2.57814  |     1.36429
   10 C10              |   8 C8               |     2.65964  |     1.40742
   11 H11              |   8 C8               |     2.06485  |     1.09267
   12 C12              |  10 C10              |     2.66952  |     1.41265
   13 H13              |  10 C10              |     2.06720  |     1.09391
   14 C14              |   9 C9               |     2.66180  |     1.40856
   14 C14              |  12 C12              |     2.66766  |     1.41167
   15 H15              |  12 C12              |     2.06909  |     1.09491
   16 H16              |  14 C14              |     2.06754  |     1.09409
   17 H17              |   9 C9               |     2.06607  |     1.09332
   18 C18              |   3 N3               |     2.57025  |     1.36012
   19 C19              |   3 N3               |     2.57203  |     1.36106
   20 C20              |  18 C18              |     2.66511  |     1.41032
   21 H21              |  18 C18              |     2.06876  |     1.09474
   22 C22              |  20 C20              |     2.66891  |     1.41233
   23 H23              |  20 C20              |     2.06784  |     1.09425
   24 C24              |  19 C19              |     2.66419  |     1.40983
   24 C24              |  22 C22              |     2.66951  |     1.41265
   25 H25              |  22 C22              |     2.06957  |     1.09517
   26 H26              |  24 C24              |     2.06773  |     1.09420
   27 H27              |  19 C19              |     2.07094  |     1.09589
   28 H28              |   4 C4               |     2.10309  |     1.11291
   29 H29              |   4 C4               |     2.09841  |     1.11043
   30 N30              |   5 C5               |     2.62894  |     1.39118
   31 N31              |   5 C5               |     2.62552  |     1.38936
   32 C32              |  30 N30              |     2.79877  |     1.48105
   33 C33              |  30 N30              |     2.68572  |     1.42122
   34 C34              |  32 C32              |     2.93909  |     1.55530
   35 H35              |  32 C32              |     2.09001  |     1.10598
   36 H36              |  32 C32              |     2.08220  |     1.10185
   37 C37              |  34 C34              |     2.92271  |     1.54663
   38 C38              |  34 C34              |     2.91817  |     1.54423
   39 H39              |  34 C34              |     2.09022  |     1.10610
   40 H40              |  37 C37              |     2.09444  |     1.10833
   41 H41              |  37 C37              |     2.08649  |     1.10412
   42 H42              |  37 C37              |     2.08819  |     1.10502
   43 H43              |  38 C38              |     2.08907  |     1.10549
   44 H44              |  38 C38              |     2.08927  |     1.10559
   45 H45              |  38 C38              |     2.09334  |     1.10775
   46 C46              |  33 C33              |     2.83429  |     1.49984
   47 C47              |  31 N31              |     2.68061  |     1.41852
   47 C47              |  33 C33              |     2.61048  |     1.38141
   48 H48              |  46 C46              |     2.08588  |     1.10380
   49 H49              |  46 C46              |     2.08332  |     1.10244
   50 H50              |  46 C46              |     2.09189  |     1.10698
   51 C51              |  47 C47              |     2.83618  |     1.50084
   52 H52              |  51 C51              |     2.09027  |     1.10612
   53 H53              |  51 C51              |     2.08769  |     1.10476
   54 H54              |  51 C51              |     2.08413  |     1.10287
   55 C55              |  31 N31              |     2.79150  |     1.47720
   56 C56              |  55 C55              |     2.93911  |     1.55531
   57 H57              |  55 C55              |     2.07250  |     1.09672
   58 H58              |  55 C55              |     2.09068  |     1.10634
   59 C59              |  56 C56              |     2.92334  |     1.54696
   60 C60              |  56 C56              |     2.91896  |     1.54465
   61 H61              |  56 C56              |     2.09438  |     1.10830
   62 H62              |  59 C59              |     2.08854  |     1.10521
   63 H63              |  59 C59              |     2.09174  |     1.10690
   64 H64              |  59 C59              |     2.09097  |     1.10649
   65 H65              |  60 C60              |     2.08915  |     1.10553
   66 H66              |  60 C60              |     2.08868  |     1.10528
   67 H67              |  60 C60              |     2.08654  |     1.10415
   68 C68              |   6 N6               |     2.29922  |     1.21669
   69 O69              |  68 C68              |     2.33575  |     1.23603
   70 C70              |   7 N7               |     2.29579  |     1.21488
   71 O71              |  70 C70              |     2.33977  |     1.23815
 ------------------------------------------------------------------------------
                         number of included internuclear distances:         73
 ==============================================================================



 ==============================================================================
                                 internuclear angles
 ------------------------------------------------------------------------------
        center 1       |       center 2       |       center 3       |  degrees
 ------------------------------------------------------------------------------
    2 N2               |   1 Ru1              |   3 N3               |    83.58
    2 N2               |   1 Ru1              |   4 C4               |    89.02
    2 N2               |   1 Ru1              |   5 C5               |   175.09
    2 N2               |   1 Ru1              |   6 N6               |    86.13
    2 N2               |   1 Ru1              |   7 N7               |    89.50
    3 N3               |   1 Ru1              |   4 C4               |   172.15
    3 N3               |   1 Ru1              |   5 C5               |    99.69
    3 N3               |   1 Ru1              |   6 N6               |    83.36
    3 N3               |   1 Ru1              |   7 N7               |    82.56
    4 C4               |   1 Ru1              |   5 C5               |    87.52
    4 C4               |   1 Ru1              |   6 N6               |    93.52
    4 C4               |   1 Ru1              |   7 N7               |   100.08
    5 C5               |   1 Ru1              |   6 N6               |    90.60
    5 C5               |   1 Ru1              |   7 N7               |    94.54
    6 N6               |   1 Ru1              |   7 N7               |   165.64
    1 Ru1              |   2 N2               |   8 C8               |   122.13
    1 Ru1              |   2 N2               |   9 C9               |   120.34
    8 C8               |   2 N2               |   9 C9               |   117.49
    1 Ru1              |   3 N3               |  18 C18              |   121.79
    1 Ru1              |   3 N3               |  19 C19              |   120.19
   18 C18              |   3 N3               |  19 C19              |   117.61
    1 Ru1              |   4 C4               |  28 H28              |   120.80
    1 Ru1              |   4 C4               |  29 H29              |   125.99
   28 H28              |   4 C4               |  29 H29              |   113.05
    1 Ru1              |   5 C5               |  30 N30              |   126.51
    1 Ru1              |   5 C5               |  31 N31              |   127.62
   30 N30              |   5 C5               |  31 N31              |   103.56
    1 Ru1              |   6 N6               |  68 C68              |   141.37
    1 Ru1              |   7 N7               |  70 C70              |   146.06
    2 N2               |   8 C8               |  10 C10              |   123.07
    2 N2               |   8 C8               |  11 H11              |   115.78
   10 C10              |   8 C8               |  11 H11              |   121.15
    2 N2               |   9 C9               |  14 C14              |   123.06
    2 N2               |   9 C9               |  17 H17              |   115.69
   14 C14              |   9 C9               |  17 H17              |   121.23
    8 C8               |  10 C10              |  12 C12              |   119.19
    8 C8               |  10 C10              |  13 H13              |   119.29
   12 C12              |  10 C10              |  13 H13              |   121.52
   10 C10              |  12 C12              |  14 C14              |   118.03
   10 C10              |  12 C12              |  15 H15              |   120.97
   14 C14              |  12 C12              |  15 H15              |   121.00
    9 C9               |  14 C14              |  12 C12              |   119.16
    9 C9               |  14 C14              |  16 H16              |   119.35
   12 C12              |  14 C14              |  16 H16              |   121.49
    3 N3               |  18 C18              |  20 C20              |   123.14
    3 N3               |  18 C18              |  21 H21              |   115.18
   20 C20              |  18 C18              |  21 H21              |   121.67
    3 N3               |  19 C19              |  24 C24              |   123.13
    3 N3               |  19 C19              |  27 H27              |   114.94
   24 C24              |  19 C19              |  27 H27              |   121.93
   18 C18              |  20 C20              |  22 C22              |   118.99
   18 C18              |  20 C20              |  23 H23              |   119.52
   22 C22              |  20 C20              |  23 H23              |   121.49
   20 C20              |  22 C22              |  24 C24              |   118.13
   20 C20              |  22 C22              |  25 H25              |   120.93
   24 C24              |  22 C22              |  25 H25              |   120.94
   19 C19              |  24 C24              |  22 C22              |   119.00
   19 C19              |  24 C24              |  26 H26              |   119.55
   22 C22              |  24 C24              |  26 H26              |   121.46
    5 C5               |  30 N30              |  32 C32              |   124.99
    5 C5               |  30 N30              |  33 C33              |   111.58
   32 C32              |  30 N30              |  33 C33              |   122.72
    5 C5               |  31 N31              |  47 C47              |   111.76
    5 C5               |  31 N31              |  55 C55              |   124.93
   47 C47              |  31 N31              |  55 C55              |   122.83
   30 N30              |  32 C32              |  34 C34              |   113.43
   30 N30              |  32 C32              |  35 H35              |   108.35
   30 N30              |  32 C32              |  36 H36              |   108.17
   34 C34              |  32 C32              |  35 H35              |   110.17
   34 C34              |  32 C32              |  36 H36              |   108.26
   35 H35              |  32 C32              |  36 H36              |   108.32
   30 N30              |  33 C33              |  46 C46              |   123.80
   30 N30              |  33 C33              |  47 C47              |   106.41
   46 C46              |  33 C33              |  47 C47              |   129.62
   32 C32              |  34 C34              |  37 C37              |   108.55
   32 C32              |  34 C34              |  38 C38              |   113.97
   32 C32              |  34 C34              |  39 H39              |   106.02
   37 C37              |  34 C34              |  38 C38              |   110.93
   37 C37              |  34 C34              |  39 H39              |   108.62
   38 C38              |  34 C34              |  39 H39              |   108.52
   34 C34              |  37 C37              |  40 H40              |   110.88
   34 C34              |  37 C37              |  41 H41              |   111.69
   34 C34              |  37 C37              |  42 H42              |   110.53
   40 H40              |  37 C37              |  41 H41              |   108.56
   40 H40              |  37 C37              |  42 H42              |   107.68
   41 H41              |  37 C37              |  42 H42              |   107.34
   34 C34              |  38 C38              |  43 H43              |   109.87
   34 C34              |  38 C38              |  44 H44              |   111.91
   34 C34              |  38 C38              |  45 H45              |   111.32
   43 H43              |  38 C38              |  44 H44              |   107.70
   43 H43              |  38 C38              |  45 H45              |   107.31
   44 H44              |  38 C38              |  45 H45              |   108.56
   33 C33              |  46 C46              |  48 H48              |   112.72
   33 C33              |  46 C46              |  49 H49              |   109.75
   33 C33              |  46 C46              |  50 H50              |   111.59
   48 H48              |  46 C46              |  49 H49              |   107.48
   48 H48              |  46 C46              |  50 H50              |   107.59
   49 H49              |  46 C46              |  50 H50              |   107.47
   31 N31              |  47 C47              |  33 C33              |   106.44
   31 N31              |  47 C47              |  51 C51              |   123.79
   33 C33              |  47 C47              |  51 C51              |   129.69
   47 C47              |  51 C51              |  52 H52              |   112.83
   47 C47              |  51 C51              |  53 H53              |   111.34
   47 C47              |  51 C51              |  54 H54              |   109.95
   52 H52              |  51 C51              |  53 H53              |   107.76
   52 H52              |  51 C51              |  54 H54              |   107.37
   53 H53              |  51 C51              |  54 H54              |   107.36
   31 N31              |  55 C55              |  56 C56              |   113.67
   31 N31              |  55 C55              |  57 H57              |   106.56
   31 N31              |  55 C55              |  58 H58              |   109.52
   56 C56              |  55 C55              |  57 H57              |   109.53
   56 C56              |  55 C55              |  58 H58              |   110.09
   57 H57              |  55 C55              |  58 H58              |   107.22
   55 C55              |  56 C56              |  59 C59              |   108.09
   55 C55              |  56 C56              |  60 C60              |   112.35
   55 C55              |  56 C56              |  61 H61              |   109.01
   59 C59              |  56 C56              |  60 C60              |   111.31
   59 C59              |  56 C56              |  61 H61              |   107.85
   60 C60              |  56 C56              |  61 H61              |   108.11
   56 C56              |  59 C59              |  62 H62              |   110.88
   56 C56              |  59 C59              |  63 H63              |   110.52
   56 C56              |  59 C59              |  64 H64              |   111.56
   62 H62              |  59 C59              |  63 H63              |   107.91
   62 H62              |  59 C59              |  64 H64              |   107.95
   63 H63              |  59 C59              |  64 H64              |   107.90
   56 C56              |  60 C60              |  65 H65              |   110.46
   56 C56              |  60 C60              |  66 H66              |   111.64
   56 C56              |  60 C60              |  67 H67              |   110.70
   65 H65              |  60 C60              |  66 H66              |   108.10
   65 H65              |  60 C60              |  67 H67              |   108.05
   66 H66              |  60 C60              |  67 H67              |   107.76
    6 N6               |  68 C68              |  69 O69              |   175.70
    7 N7               |  70 C70              |  71 O71              |   175.58
 ------------------------------------------------------------------------------
                            number of included internuclear angles:        133
 ==============================================================================



 ------------------------------------------------------------------------
 dft optimize failed                                                                                0
 ------------------------------------------------------------------------
 ------------------------------------------------------------------------
  current input line : 
   327: task  dft  optimize
 ------------------------------------------------------------------------
 ------------------------------------------------------------------------
 This type of error is most commonly associated with calculations not reaching 
 convergence criteria
 ------------------------------------------------------------------------
 For more information see the NWChem manual at 
 http://www.nwchem-sw.org/index.php/NWChem_Documentation


 For further details see manual section: 
                                                                                
                                                                                
                                                                                
                   
0:0:dft optimize failed:: -1
(rank:0 hostname:c24-1.local pid:6155):ARMCI DASSERT fail. ../../ga-5.6.3/armci/src/common/armci.c:ARMCI_Error():208 cond:0
Last System Error Message from Task 0:: Inappropriate ioctl for device
application called MPI_Abort(comm=0x84000007, -1) - process 0
