 argument  1 = M00000019_L_DFT.nw
                                         
                                         


              Northwest Computational Chemistry Package (NWChem) 6.3
              ------------------------------------------------------


                    Environmental Molecular Sciences Laboratory
                       Pacific Northwest National Laboratory
                                Richland, WA 99352

                              Copyright (c) 1994-2012
                       Pacific Northwest National Laboratory
                            Battelle Memorial Institute

             NWChem is an open-source computational chemistry package
                        distributed under the terms of the
                      Educational Community License (ECL) 2.0
             A copy of the license is included with this distribution
                              in the LICENSE.TXT file

                                  ACKNOWLEDGMENT
                                  --------------

            This software and its documentation were developed at the
            EMSL at Pacific Northwest National Laboratory, a multiprogram
            national laboratory, operated for the U.S. Department of Energy
            by Battelle under Contract Number DE-AC05-76RL01830. Support
            for this work was provided by the Department of Energy Office
            of Biological and Environmental Research, Office of Basic
            Energy Sciences, and the Office of Advanced Scientific Computing.


           Job information
           ---------------

    hostname        = nid00763
    program         = nwchem
    date            = Thu Jan 12 10:45:27 2017

    compiled        = Wed_Apr_16_16:16:35_2014
    source          = /work/aoltu/build/nwchem-6.3.revision2-mod20140401-py-gnu
    nwchem branch   = 6.3
    nwchem revision = 24652
    ga revision     = 10379
    input           = M00000019_L_DFT.nw
    prefix          = M00000019_L_DFT.
    data base       = ./M00000019_L_DFT.db
    status          = startup
    nproc           =      256
    time left       =     -1s



           Memory information
           ------------------

    heap     =   52428801 doubles =    400.0 Mbytes
    stack    =   52428801 doubles =    400.0 Mbytes
    global   =  104857600 doubles =    800.0 Mbytes (distinct from heap & stack)
    total    =  209715202 doubles =   1600.0 Mbytes
    verify   = yes
    hardfail = no 


           Directory information
           ---------------------

  0 permanent = .
  0 scratch   = .




                                NWChem Input Module
                                -------------------


  library name resolved from: environment
  library file name is: </work/apps/nwchem/6.3.r2-py-20140401-dsl-gnu/data/libraries/>
  
                      Basis "ao basis" -> "" (cartesian)
                      -----
  H (Hydrogen)
  ------------
            Exponent  Coefficients 
       -------------- ---------------------------------------------------------
  1 S  1.92384000E+01  0.032828
  1 S  2.89870000E+00  0.231204
  1 S  6.53500000E-01  0.817226

  2 S  1.77600000E-01  1.000000

  C (Carbon)
  ----------
            Exponent  Coefficients 
       -------------- ---------------------------------------------------------
  1 S  4.23300000E+03  0.001220
  1 S  6.34900000E+02  0.009342
  1 S  1.46100000E+02  0.045452
  1 S  4.25000000E+01  0.154657
  1 S  1.41900000E+01  0.358866
  1 S  5.14800000E+00  0.438632
  1 S  1.96700000E+00  0.145918

  2 S  5.14800000E+00 -0.168367
  2 S  4.96200000E-01  1.060091

  3 S  1.53300000E-01  1.000000

  4 P  1.81600000E+01  0.018539
  4 P  3.98600000E+00  0.115436
  4 P  1.14300000E+00  0.386188
  4 P  3.59400000E-01  0.640114

  5 P  1.14600000E-01  1.000000

  N (Nitrogen)
  ------------
            Exponent  Coefficients 
       -------------- ---------------------------------------------------------
  1 S  5.90900000E+03  0.001190
  1 S  8.87500000E+02  0.009099
  1 S  2.04700000E+02  0.044145
  1 S  5.98400000E+01  0.150464
  1 S  2.00000000E+01  0.356741
  1 S  7.19300000E+00  0.446533
  1 S  2.68600000E+00  0.145603

  2 S  7.19300000E+00 -0.160405
  2 S  7.00000000E-01  1.058215

  3 S  2.13300000E-01  1.000000

  4 P  2.67900000E+01  0.018254
  4 P  5.95600000E+00  0.116461
  4 P  1.70700000E+00  0.390178
  4 P  5.31400000E-01  0.637102

  5 P  1.65400000E-01  1.000000

  O (Oxygen)
  ----------
            Exponent  Coefficients 
       -------------- ---------------------------------------------------------
  1 S  7.81700000E+03  0.001176
  1 S  1.17600000E+03  0.008968
  1 S  2.73200000E+02  0.042868
  1 S  8.11700000E+01  0.143930
  1 S  2.71800000E+01  0.355630
  1 S  9.53200000E+00  0.461248
  1 S  3.41400000E+00  0.140206

  2 S  9.53200000E+00 -0.154153
  2 S  9.39800000E-01  1.056914

  3 S  2.84600000E-01  1.000000

  4 P  3.51800000E+01  0.019580
  4 P  7.90400000E+00  0.124200
  4 P  2.30500000E+00  0.394714
  4 P  7.17100000E-01  0.627376

  5 P  2.13700000E-01  1.000000

  Cl7 (Chlorine)
  --------------
            Exponent  Coefficients 
       -------------- ---------------------------------------------------------
  1 S  2.23100000E+00 -0.490059
  1 S  4.72000000E-01  1.254268

  2 S  1.63100000E-01  1.000000

  3 P  6.29600000E+00 -0.063564
  3 P  6.33300000E-01  1.014136

  4 P  1.81900000E-01  1.000000

  Cl10 (Chlorine)
  ---------------
            Exponent  Coefficients 
       -------------- ---------------------------------------------------------
  1 S  2.23100000E+00 -0.490059
  1 S  4.72000000E-01  1.254268

  2 S  1.63100000E-01  1.000000

  3 P  6.29600000E+00 -0.063564
  3 P  6.33300000E-01  1.014136

  4 P  1.81900000E-01  1.000000



 Summary of "ao basis" -> "" (cartesian)
 ------------------------------------------------------------------------------
       Tag                 Description            Shells   Functions and Types
 ---------------- ------------------------------  ------  ---------------------
 H                        lanl2dz ecp                2        2   2s
 C                        lanl2dz ecp                5        9   3s2p
 N                        lanl2dz ecp                5        9   3s2p
 O                        lanl2dz ecp                5        9   3s2p
 Cl7                     user specified              4        8   2s2p
 Cl10                    user specified              4        8   2s2p


  library name resolved from: environment
  library file name is: </work/apps/nwchem/6.3.r2-py-20140401-dsl-gnu/data/libraries/>
  
                 ECP       "ecp basis" -> "" (cartesian)
                -----
  Cl7 (Chlorine) Replaces    10 electrons
  ---------------------------------------
          R-exponent    Exponent     Coefficients 
         ------------ ---------------------------------------------------------
  1 U L      1.00       94.813000     -10.000000
  1 U L      2.00      165.644000      66.272917
  1 U L      2.00       30.831700     -28.968595
  1 U L      2.00       10.584100     -12.866337
  1 U L      2.00        3.770400      -1.710217

  2 U-s      0.00      128.839100       3.000000
  2 U-s      1.00      120.378600      12.852851
  2 U-s      2.00       63.562200     275.672398
  2 U-s      2.00       18.069500     115.677712
  2 U-s      2.00        3.814200      35.060609

  3 U-p      0.00      216.526300       5.000000
  3 U-p      1.00       46.572300       7.479486
  3 U-p      2.00      147.468500     613.032000
  3 U-p      2.00       48.986900     280.800685
  3 U-p      2.00       13.209600     107.878824
  3 U-p      2.00        3.183100      15.343956

  Cl10 (Chlorine) Replaces    10 electrons
  ----------------------------------------
          R-exponent    Exponent     Coefficients 
         ------------ ---------------------------------------------------------
  1 U L      1.00       94.813000     -10.000000
  1 U L      2.00      165.644000      66.272917
  1 U L      2.00       30.831700     -28.968595
  1 U L      2.00       10.584100     -12.866337
  1 U L      2.00        3.770400      -1.710217

  2 U-s      0.00      128.839100       3.000000
  2 U-s      1.00      120.378600      12.852851
  2 U-s      2.00       63.562200     275.672398
  2 U-s      2.00       18.069500     115.677712
  2 U-s      2.00        3.814200      35.060609

  3 U-p      0.00      216.526300       5.000000
  3 U-p      1.00       46.572300       7.479486
  3 U-p      2.00      147.468500     613.032000
  3 U-p      2.00       48.986900     280.800685
  3 U-p      2.00       13.209600     107.878824
  3 U-p      2.00        3.183100      15.343956


 Scaling coordinates for geometry "geometry" by  1.889725989
 (inverse scale =  0.529177249)

 Turning off AUTOSYM since
 SYMMETRY directive was detected!


          ------
          auto-z
          ------


                             Geometry "geometry" -> ""
                             -------------------------

 Output coordinates in angstroms (scale by  1.889725989 to convert to a.u.)

  No.       Tag          Charge          X              Y              Z
 ---- ---------------- ---------- -------------- -------------- --------------
    1 C1                   6.0000     1.43155182     0.12722091    -1.23608909
    2 N2                   7.0000     2.52005182     0.14312091    -0.40338909
    3 N3                   7.0000     0.28665182     0.05812091    -0.43818909
    4 H4                   1.0000     3.48585182     0.19542091    -0.69018909
    5 C5                   6.0000     2.16605182     0.06002091     1.03331091
    6 H6                   1.0000     2.64635182     0.85692091     1.64841091
    7 Cl7                 17.0000     2.71665182    -1.51547909     1.71301091
    8 C8                   6.0000     0.61275182     0.08972091     1.01441091
    9 H9                   1.0000     0.11785182    -0.72937909     1.58691091
   10 Cl10                17.0000     0.07445182     1.64602091     1.75101091
   11 C11                  6.0000    -1.05474818    -0.03207909    -0.93318909
   12 C12                  6.0000    -1.25084818    -0.07667909    -2.32948909
   13 C13                  6.0000    -2.15174818    -0.08647909    -0.05668909
   14 H14                  1.0000    -0.39664818    -0.02977909    -3.00698909
   15 C15                  6.0000    -2.54564818    -0.17807909    -2.83288909
   16 H16                  1.0000    -2.70194818    -0.21227909    -3.91138909
   17 C17                  6.0000    -3.64504818    -0.23617909    -1.96708909
   18 H18                  1.0000    -4.65194818    -0.31557909    -2.36988909
   19 C19                  6.0000    -3.44164818    -0.18857909    -0.58668909
   20 H20                  1.0000    -4.29484818    -0.22907909     0.09081091
   21 H21                  1.0000    -2.02434818    -0.03747909     1.02141091

      Atomic Mass 
      ----------- 

      C1                12.000000
      N2                14.003070
      N3                14.003070
      H4                 1.007825
      C5                12.000000
      H6                 1.007825
      Cl7               34.968850
      C8                12.000000
      H9                 1.007825
      Cl10              34.968850
      C11               12.000000
      C12               12.000000
      C13               12.000000
      H14                1.007825
      C15               12.000000
      H16                1.007825
      C17               12.000000
      H18                1.007825
      C19               12.000000
      H20                1.007825
      H21                1.007825


 Effective nuclear repulsion energy (a.u.)     944.8869261325

            Nuclear Dipole moment (a.u.) 
            ----------------------------
        X                 Y               Z
 ---------------- ---------------- ----------------
    -0.0000000000     0.0000000000    -0.0000000000



                                Z-matrix (autoz)
                                -------- 

 Units are Angstrom for bonds and degrees for angles

      Type          Name      I     J     K     L     M      Value
      ----------- --------  ----- ----- ----- ----- ----- ----------
    1 Stretch                  1     2                       1.37057
    2 Stretch                  1     3                       1.39722
    3 Stretch                  2     4                       1.00884
    4 Stretch                  2     5                       1.48200
    5 Stretch                  3     8                       1.48909
    6 Stretch                  3    11                       1.43266
    7 Stretch                  5     6                       1.11539
    8 Stretch                  5     7                       1.80204
    9 Stretch                  5     8                       1.55370
   10 Stretch                  8     9                       1.11517
   11 Stretch                  8    10                       1.80400
   12 Stretch                 11    12                       1.41071
   13 Stretch                 11    13                       1.40521
   14 Stretch                 12    14                       1.09127
   15 Stretch                 12    15                       1.39291
   16 Stretch                 13    19                       1.39827
   17 Stretch                 13    21                       1.08671
   18 Stretch                 15    16                       1.09030
   19 Stretch                 15    17                       1.40059
   20 Stretch                 17    18                       1.08738
   21 Stretch                 17    19                       1.39612
   22 Stretch                 19    20                       1.09023
   23 Bend                     1     2     4               126.02875
   24 Bend                     1     2     5               113.49241
   25 Bend                     1     3     8               112.12167
   26 Bend                     1     3    11               124.96129
   27 Bend                     2     1     3               107.72170
   28 Bend                     2     5     6               113.05972
   29 Bend                     2     5     7               109.98010
   30 Bend                     2     5     8               103.05818
   31 Bend                     3     8     5               103.32047
   32 Bend                     3     8     9               112.83140
   33 Bend                     3     8    10               110.56506
   34 Bend                     3    11    12               118.30247
   35 Bend                     3    11    13               121.18895
   36 Bend                     4     2     5               120.47610
   37 Bend                     5     8     9               115.04873
   38 Bend                     5     8    10               108.04958
   39 Bend                     6     5     7               106.56294
   40 Bend                     6     5     8               115.05915
   41 Bend                     7     5     8               109.07253
   42 Bend                     8     3    11               122.91702
   43 Bend                     9     8    10               106.95452
   44 Bend                    11    12    14               120.28677
   45 Bend                    11    12    15               119.28990
   46 Bend                    11    13    19               119.11482
   47 Bend                    11    13    21               121.70477
   48 Bend                    12    11    13               120.50648
   49 Bend                    12    15    16               119.53991
   50 Bend                    12    15    17               120.61570
   51 Bend                    13    19    17               120.77446
   52 Bend                    13    19    20               119.28150
   53 Bend                    14    12    15               120.42317
   54 Bend                    15    17    18               120.05927
   55 Bend                    15    17    19               119.69832
   56 Bend                    16    15    17               119.84439
   57 Bend                    17    19    20               119.94393
   58 Bend                    18    17    19               120.24225
   59 Bend                    19    13    21               119.17497
   60 Torsion                  1     2     5     6        -128.83821
   61 Torsion                  1     2     5     7         112.18580
   62 Torsion                  1     2     5     8          -3.99778
   63 Torsion                  1     3     8     5          -4.96996
   64 Torsion                  1     3     8     9        -129.84316
   65 Torsion                  1     3     8    10         110.42833
   66 Torsion                  1     3    11    12           1.05224
   67 Torsion                  1     3    11    13        -179.47275
   68 Torsion                  2     1     3     8           2.67608
   69 Torsion                  2     1     3    11        -177.36795
   70 Torsion                  2     5     8     3           5.06424
   71 Torsion                  2     5     8     9         128.48591
   72 Torsion                  2     5     8    10        -112.11807
   73 Torsion                  3     1     2     4        -179.57233
   74 Torsion                  3     1     2     5           1.03143
   75 Torsion                  3     8     5     6         128.59021
   76 Torsion                  3     8     5     7        -111.76472
   77 Torsion                  3    11    12    14          -0.78983
   78 Torsion                  3    11    12    15         179.35390
   79 Torsion                  3    11    13    19        -179.31908
   80 Torsion                  3    11    13    21           1.53707
   81 Torsion                  4     2     5     6          51.72834
   82 Torsion                  4     2     5     7         -67.24765
   83 Torsion                  4     2     5     8         176.56877
   84 Torsion                  5     8     3    11         175.07302
   85 Torsion                  6     5     8     9        -107.98812
   86 Torsion                  6     5     8    10          11.40790
   87 Torsion                  7     5     8     9          11.65696
   88 Torsion                  7     5     8    10         131.05298
   89 Torsion                  8     3    11    12        -178.99635
   90 Torsion                  8     3    11    13           0.47866
   91 Torsion                  9     8     3    11          50.19983
   92 Torsion                 10     8     3    11         -69.52869
   93 Torsion                 11    12    15    16         179.96471
   94 Torsion                 11    12    15    17          -0.03086
   95 Torsion                 11    13    19    17          -0.00895
   96 Torsion                 11    13    19    20        -179.88506
   97 Torsion                 12    11    13    19           0.14442
   98 Torsion                 12    11    13    21        -178.99943
   99 Torsion                 12    15    17    18        -179.98172
  100 Torsion                 12    15    17    19           0.16484
  101 Torsion                 13    11    12    14         179.73144
  102 Torsion                 13    11    12    15          -0.12483
  103 Torsion                 13    19    17    15          -0.14474
  104 Torsion                 13    19    17    18        -179.99791
  105 Torsion                 14    12    15    16           0.10864
  106 Torsion                 14    12    15    17        -179.88693
  107 Torsion                 15    17    19    20         179.73055
  108 Torsion                 16    15    17    18           0.02273
  109 Torsion                 16    15    17    19        -179.83071
  110 Torsion                 17    19    13    21         179.15684
  111 Torsion                 18    17    19    20          -0.12262
  112 Torsion                 20    19    13    21          -0.71927


            XYZ format geometry
            -------------------
    21
 geometry
 C1                    1.43155182     0.12722091    -1.23608909
 N2                    2.52005182     0.14312091    -0.40338909
 N3                    0.28665182     0.05812091    -0.43818909
 H4                    3.48585182     0.19542091    -0.69018909
 C5                    2.16605182     0.06002091     1.03331091
 H6                    2.64635182     0.85692091     1.64841091
 Cl7                   2.71665182    -1.51547909     1.71301091
 C8                    0.61275182     0.08972091     1.01441091
 H9                    0.11785182    -0.72937909     1.58691091
 Cl10                  0.07445182     1.64602091     1.75101091
 C11                  -1.05474818    -0.03207909    -0.93318909
 C12                  -1.25084818    -0.07667909    -2.32948909
 C13                  -2.15174818    -0.08647909    -0.05668909
 H14                  -0.39664818    -0.02977909    -3.00698909
 C15                  -2.54564818    -0.17807909    -2.83288909
 H16                  -2.70194818    -0.21227909    -3.91138909
 C17                  -3.64504818    -0.23617909    -1.96708909
 H18                  -4.65194818    -0.31557909    -2.36988909
 C19                  -3.44164818    -0.18857909    -0.58668909
 H20                  -4.29484818    -0.22907909     0.09081091
 H21                  -2.02434818    -0.03747909     1.02141091

 ==============================================================================
                                internuclear distances
 ------------------------------------------------------------------------------
       center one      |      center two      | atomic units |  angstroms
 ------------------------------------------------------------------------------
    2 N2               |   1 C1               |     2.59001  |     1.37057
    3 N3               |   1 C1               |     2.64036  |     1.39722
    4 H4               |   2 N2               |     1.90643  |     1.00884
    5 C5               |   2 N2               |     2.80058  |     1.48200
    6 H6               |   5 C5               |     2.10777  |     1.11539
    7 Cl7              |   5 C5               |     3.40536  |     1.80204
    8 C8               |   3 N3               |     2.81397  |     1.48909
    8 C8               |   5 C5               |     2.93607  |     1.55370
    9 H9               |   8 C8               |     2.10737  |     1.11517
   10 Cl10             |   8 C8               |     3.40907  |     1.80400
   11 C11              |   3 N3               |     2.70734  |     1.43266
   12 C12              |  11 C11              |     2.66585  |     1.41071
   13 C13              |  11 C11              |     2.65547  |     1.40521
   14 H14              |  12 C12              |     2.06220  |     1.09127
   15 C15              |  12 C12              |     2.63222  |     1.39291
   16 H16              |  15 C15              |     2.06037  |     1.09030
   17 C17              |  15 C15              |     2.64674  |     1.40059
   18 H18              |  17 C17              |     2.05485  |     1.08738
   19 C19              |  13 C13              |     2.64235  |     1.39827
   19 C19              |  17 C17              |     2.63828  |     1.39612
   20 H20              |  19 C19              |     2.06023  |     1.09023
   21 H21              |  13 C13              |     2.05358  |     1.08671
 ------------------------------------------------------------------------------
                         number of included internuclear distances:         22
 ==============================================================================



 ==============================================================================
                                 internuclear angles
 ------------------------------------------------------------------------------
        center 1       |       center 2       |       center 3       |  degrees
 ------------------------------------------------------------------------------
    2 N2               |   1 C1               |   3 N3               |   107.72
    1 C1               |   2 N2               |   4 H4               |   126.03
    1 C1               |   2 N2               |   5 C5               |   113.49
    4 H4               |   2 N2               |   5 C5               |   120.48
    1 C1               |   3 N3               |   8 C8               |   112.12
    1 C1               |   3 N3               |  11 C11              |   124.96
    8 C8               |   3 N3               |  11 C11              |   122.92
    2 N2               |   5 C5               |   6 H6               |   113.06
    2 N2               |   5 C5               |   7 Cl7              |   109.98
    2 N2               |   5 C5               |   8 C8               |   103.06
    6 H6               |   5 C5               |   7 Cl7              |   106.56
    6 H6               |   5 C5               |   8 C8               |   115.06
    7 Cl7              |   5 C5               |   8 C8               |   109.07
    3 N3               |   8 C8               |   5 C5               |   103.32
    3 N3               |   8 C8               |   9 H9               |   112.83
    3 N3               |   8 C8               |  10 Cl10             |   110.57
    5 C5               |   8 C8               |   9 H9               |   115.05
    5 C5               |   8 C8               |  10 Cl10             |   108.05
    9 H9               |   8 C8               |  10 Cl10             |   106.95
    3 N3               |  11 C11              |  12 C12              |   118.30
    3 N3               |  11 C11              |  13 C13              |   121.19
   12 C12              |  11 C11              |  13 C13              |   120.51
   11 C11              |  12 C12              |  14 H14              |   120.29
   11 C11              |  12 C12              |  15 C15              |   119.29
   14 H14              |  12 C12              |  15 C15              |   120.42
   11 C11              |  13 C13              |  19 C19              |   119.11
   11 C11              |  13 C13              |  21 H21              |   121.70
   19 C19              |  13 C13              |  21 H21              |   119.17
   12 C12              |  15 C15              |  16 H16              |   119.54
   12 C12              |  15 C15              |  17 C17              |   120.62
   16 H16              |  15 C15              |  17 C17              |   119.84
   15 C15              |  17 C17              |  18 H18              |   120.06
   15 C15              |  17 C17              |  19 C19              |   119.70
   18 H18              |  17 C17              |  19 C19              |   120.24
   13 C13              |  19 C19              |  17 C17              |   120.77
   13 C13              |  19 C19              |  20 H20              |   119.28
   17 C17              |  19 C19              |  20 H20              |   119.94
 ------------------------------------------------------------------------------
                            number of included internuclear angles:         37
 ==============================================================================



                                 Step1: SP with HF
                                 -----------------
                                 NWChem SCF Module
                                 -----------------


                                 Step1: SP with HF



  ao basis        = "ao basis"
  functions       =   131
  atoms           =    21
  closed shells   =    45
  open shells     =     0
  charge          =   0.00
  wavefunction    = RHF 
  input vectors   = atomic
  output vectors  = ./M00000019_L_DFT.movecs
  use symmetry    = F
  symmetry adapt  = F


 Summary of "ao basis" -> "ao basis" (cartesian)
 ------------------------------------------------------------------------------
       Tag                 Description            Shells   Functions and Types
 ---------------- ------------------------------  ------  ---------------------
 H                        lanl2dz ecp                2        2   2s
 C                        lanl2dz ecp                5        9   3s2p
 N                        lanl2dz ecp                5        9   3s2p
 O                        lanl2dz ecp                5        9   3s2p
 Cl7                     user specified              4        8   2s2p
 Cl10                    user specified              4        8   2s2p



 Forming initial guess at       7.9s


      Superposition of Atomic Density Guess
      -------------------------------------

 Sum of atomic energies:        -486.23288150

      Non-variational initial energy
      ------------------------------

 Total energy =    -488.569236
 1-e energy   =   -2036.242889
 2-e energy   =     853.956430
 HOMO         =      -0.226871
 LUMO         =      -0.009344


 Starting SCF solution at       9.3s



 ----------------------------------------------
         Quadratically convergent ROHF

 Convergence threshold     :          1.000E-04
 Maximum no. of iterations :           30
 Final Fock-matrix accuracy:          1.000E-07
 ----------------------------------------------


              iter       energy          gnorm     gmax       time
             ----- ------------------- --------- --------- --------
                 1     -483.3931954410  1.36D+00  1.83D-01      1.7
                 2     -483.5504595837  5.04D-01  5.33D-02      3.7
                 3     -483.5769981972  6.24D-02  9.28D-03      7.3
                 4     -483.5772858531  7.97D-03  8.75D-04     10.8
  ga_iter_lsolve: convergence stagnant ... aborting solve
                 5     -483.5772897695  2.32D-04  3.30D-05     16.9
  ga_iter_lsolve: convergence stagnant ... aborting solve
                 6     -483.5772897677  1.65D-05  3.93D-06     21.2


       Final RHF  results 
       ------------------ 

         Total SCF energy =   -483.577289767695
      One-electron energy =  -2039.920625723937
      Two-electron energy =    862.626113133183
 Nuclear repulsion energy =    693.717222823059

        Time for solution =     20.4s


             Final eigenvalues
             -----------------

              1      
    1  -15.6282
    2  -15.6214
    3  -11.3881
    4  -11.3874
    5  -11.3285
    6  -11.3147
    7  -11.2572
    8  -11.2556
    9  -11.2540
   10  -11.2473
   11  -11.2469
   12   -1.3634
   13   -1.2440
   14   -1.1725
   15   -1.1569
   16   -1.1193
   17   -1.0313
   18   -1.0263
   19   -0.9803
   20   -0.8909
   21   -0.8755
   22   -0.8298
   23   -0.7987
   24   -0.7434
   25   -0.7114
   26   -0.6916
   27   -0.6669
   28   -0.6490
   29   -0.6309
   30   -0.6097
   31   -0.6055
   32   -0.5962
   33   -0.5841
   34   -0.5495
   35   -0.5194
   36   -0.5043
   37   -0.5019
   38   -0.4763
   39   -0.4740
   40   -0.4652
   41   -0.4589
   42   -0.4337
   43   -0.3776
   44   -0.3482
   45   -0.3182
   46    0.1081
   47    0.1211
   48    0.1360
   49    0.1820
   50    0.2021
   51    0.2192
   52    0.2450
   53    0.2567
   54    0.2720
   55    0.2880

                       ROHF Final Molecular Orbital Analysis
                       -------------------------------------

 Vector   12  Occ=2.000000D+00  E=-1.363375D+00
              MO Center=  1.3D+00,  9.3D-02, -1.8D-01, r^2= 1.9D+00
   Bfn.  Coefficient  Atom+Function         Bfn.  Coefficient  Atom+Function  
  ----- ------------  ---------------      ----- ------------  ---------------
    20      0.267462   3 N  s                21      0.254252   3 N  s         
    11      0.244412   2 N  s                12      0.211065   2 N  s         
     2      0.180934   1 C  s         

 Vector   13  Occ=2.000000D+00  E=-1.244014D+00
              MO Center=  1.0D+00,  3.0D-02, -2.7D-01, r^2= 3.6D+00
   Bfn.  Coefficient  Atom+Function         Bfn.  Coefficient  Atom+Function  
  ----- ------------  ---------------      ----- ------------  ---------------
    11      0.281035   2 N  s                21     -0.272693   3 N  s         
    12      0.268543   2 N  s                20     -0.258205   3 N  s         
    69     -0.176452  11 C  s         

 Vector   14  Occ=2.000000D+00  E=-1.172517D+00
              MO Center=  6.5D-01,  3.3D-01,  7.2D-01, r^2= 5.3D+00
   Bfn.  Coefficient  Atom+Function         Bfn.  Coefficient  Atom+Function  
  ----- ------------  ---------------      ----- ------------  ---------------
    60      0.310519  10 Cl s                51      0.205758   8 C  s         
    50      0.196436   8 C  s                41      0.191640   7 Cl s         
    61      0.183302  10 Cl s                12     -0.154144   2 N  s         

 Vector   15  Occ=2.000000D+00  E=-1.156932D+00
              MO Center= -1.0D+00, -3.1D-01, -6.8D-01, r^2= 8.2D+00
   Bfn.  Coefficient  Atom+Function         Bfn.  Coefficient  Atom+Function  
  ----- ------------  ---------------      ----- ------------  ---------------
    41      0.229857   7 Cl s               120      0.175546  19 C  s         
   109      0.171697  17 C  s                98      0.168103  15 C  s         
    87      0.162955  13 C  s                78      0.150032  12 C  s         

 Vector   16  Occ=2.000000D+00  E=-1.119341D+00
              MO Center=  1.0D+00, -2.9D-03,  1.0D+00, r^2= 6.6D+00
   Bfn.  Coefficient  Atom+Function         Bfn.  Coefficient  Atom+Function  
  ----- ------------  ---------------      ----- ------------  ---------------
    41      0.351507   7 Cl s                60     -0.333714  10 Cl s         
    42      0.231883   7 Cl s                61     -0.217535  10 Cl s         
    51     -0.163226   8 C  s                32      0.160781   5 C  s         

 Vector   17  Occ=2.000000D+00  E=-1.031349D+00
              MO Center= -2.2D+00, -1.2D-01, -1.4D+00, r^2= 3.3D+00
   Bfn.  Coefficient  Atom+Function         Bfn.  Coefficient  Atom+Function  
  ----- ------------  ---------------      ----- ------------  ---------------
    87      0.264300  13 C  s                98     -0.262727  15 C  s         
    88      0.238700  13 C  s                99     -0.238969  15 C  s         
    78     -0.173853  12 C  s         

 Vector   18  Occ=2.000000D+00  E=-1.026274D+00
              MO Center= -1.6D+00, -4.3D-03, -1.0D+00, r^2= 5.6D+00
   Bfn.  Coefficient  Atom+Function         Bfn.  Coefficient  Atom+Function  
  ----- ------------  ---------------      ----- ------------  ---------------
    69      0.224339  11 C  s               109     -0.217549  17 C  s         
   120     -0.205556  19 C  s                78      0.194390  12 C  s         
   110     -0.189586  17 C  s                79      0.185887  12 C  s         
   121     -0.183915  19 C  s                70      0.166244  11 C  s         
    60      0.150124  10 Cl s         

 Vector   19  Occ=2.000000D+00  E=-9.802654D-01
              MO Center=  1.2D+00,  3.0D-02,  8.2D-01, r^2= 5.2D+00
   Bfn.  Coefficient  Atom+Function         Bfn.  Coefficient  Atom+Function  
  ----- ------------  ---------------      ----- ------------  ---------------
    41      0.283805   7 Cl s                60      0.267678  10 Cl s         
    42      0.238042   7 Cl s                32     -0.232210   5 C  s         
    61      0.227295  10 Cl s                31     -0.211770   5 C  s         
    50     -0.193034   8 C  s                51     -0.181012   8 C  s         
     2      0.164015   1 C  s         

 Vector   20  Occ=2.000000D+00  E=-8.908829D-01
              MO Center= -1.3D-01,  8.2D-06, -8.6D-01, r^2= 7.2D+00
   Bfn.  Coefficient  Atom+Function         Bfn.  Coefficient  Atom+Function  
  ----- ------------  ---------------      ----- ------------  ---------------
    22     -0.267117   3 N  px               13      0.250322   2 N  px        
     2     -0.188243   1 C  s               109      0.169736  17 C  s         
   110      0.159841  17 C  s                71      0.150608  11 C  px        

 Vector   21  Occ=2.000000D+00  E=-8.754568D-01
              MO Center=  5.2D-01,  2.0D-02,  2.1D-01, r^2= 6.7D+00
   Bfn.  Coefficient  Atom+Function         Bfn.  Coefficient  Atom+Function  
  ----- ------------  ---------------      ----- ------------  ---------------
    32      0.317557   5 C  s                51     -0.288219   8 C  s         
    24     -0.206374   3 N  pz               31      0.198295   5 C  s         
    15      0.168498   2 N  pz               50     -0.161440   8 C  s         

 Vector   22  Occ=2.000000D+00  E=-8.298479D-01
              MO Center= -1.4D+00, -7.2D-02, -8.8D-01, r^2= 7.3D+00
   Bfn.  Coefficient  Atom+Function         Bfn.  Coefficient  Atom+Function  
  ----- ------------  ---------------      ----- ------------  ---------------
    51      0.208845   8 C  s                73     -0.208392  11 C  pz        
   113      0.190653  17 C  pz               88     -0.175126  13 C  s         
    98     -0.170158  15 C  s                79      0.165091  12 C  s         
    87     -0.162819  13 C  s               120      0.161527  19 C  s         
    32     -0.158271   5 C  s                78      0.157451  12 C  s         

 Vector   23  Occ=2.000000D+00  E=-7.987407D-01
              MO Center= -1.0D+00, -6.0D-02, -9.7D-01, r^2= 7.9D+00
   Bfn.  Coefficient  Atom+Function         Bfn.  Coefficient  Atom+Function  
  ----- ------------  ---------------      ----- ------------  ---------------
    13      0.218047   2 N  px               82     -0.193668  12 C  pz        
    89     -0.186869  13 C  px               69     -0.175633  11 C  s         
    21      0.166133   3 N  s               124      0.166128  19 C  pz        
   100      0.150441  15 C  px        

 Vector   24  Occ=2.000000D+00  E=-7.433707D-01
              MO Center=  6.3D-01,  3.7D-02,  1.4D-01, r^2= 6.1D+00
   Bfn.  Coefficient  Atom+Function         Bfn.  Coefficient  Atom+Function  
  ----- ------------  ---------------      ----- ------------  ---------------
    35      0.273027   5 C  pz               54      0.272696   8 C  pz        
    24     -0.232538   3 N  pz               15     -0.211385   2 N  pz        

 Vector   25  Occ=2.000000D+00  E=-7.114383D-01
              MO Center= -2.8D-01,  2.5D-02, -6.0D-01, r^2= 9.7D+00
   Bfn.  Coefficient  Atom+Function         Bfn.  Coefficient  Atom+Function  
  ----- ------------  ---------------      ----- ------------  ---------------
    13      0.245948   2 N  px               35      0.207085   5 C  pz        
   111      0.181632  17 C  px               91     -0.172404  13 C  pz        
   122      0.155930  19 C  px        

 Vector   26  Occ=2.000000D+00  E=-6.916022D-01
              MO Center=  5.8D-01,  3.5D-02,  7.8D-02, r^2= 6.6D+00
   Bfn.  Coefficient  Atom+Function         Bfn.  Coefficient  Atom+Function  
  ----- ------------  ---------------      ----- ------------  ---------------
    53      0.217728   8 C  py               34      0.199441   5 C  py        
     4      0.196999   1 C  px               24      0.183990   3 N  pz        
    15     -0.163528   2 N  pz               23      0.162992   3 N  py        

 Vector   27  Occ=2.000000D+00  E=-6.668907D-01
              MO Center= -1.2D+00, -6.2D-02, -1.0D+00, r^2= 8.0D+00
   Bfn.  Coefficient  Atom+Function         Bfn.  Coefficient  Atom+Function  
  ----- ------------  ---------------      ----- ------------  ---------------
    22      0.270934   3 N  px               13      0.216142   2 N  px        
     4     -0.185077   1 C  px               80      0.173631  12 C  px        
   111     -0.168982  17 C  px               91      0.156294  13 C  pz        

 Vector   28  Occ=2.000000D+00  E=-6.490231D-01
              MO Center= -3.6D-01, -1.7D-02, -2.4D-01, r^2= 8.8D+00
   Bfn.  Coefficient  Atom+Function         Bfn.  Coefficient  Atom+Function  
  ----- ------------  ---------------      ----- ------------  ---------------
    33      0.278780   5 C  px               52     -0.246789   8 C  px        
   124     -0.193347  19 C  pz              100      0.181428  15 C  px        
   113      0.157961  17 C  pz               82     -0.156747  12 C  pz        
    89      0.150680  13 C  px        

 Vector   29  Occ=2.000000D+00  E=-6.309275D-01
              MO Center=  4.4D-01,  4.3D-02,  1.2D-01, r^2= 7.7D+00
   Bfn.  Coefficient  Atom+Function         Bfn.  Coefficient  Atom+Function  
  ----- ------------  ---------------      ----- ------------  ---------------
    52      0.253123   8 C  px               33     -0.194621   5 C  px        
    13      0.188065   2 N  px               15     -0.186917   2 N  pz        
    34     -0.152448   5 C  py        

 Vector   30  Occ=2.000000D+00  E=-6.096703D-01
              MO Center= -8.1D-01, -4.3D-02, -6.9D-01, r^2= 7.7D+00
   Bfn.  Coefficient  Atom+Function         Bfn.  Coefficient  Atom+Function  
  ----- ------------  ---------------      ----- ------------  ---------------
   102      0.228350  15 C  pz                4      0.199335   1 C  px        
    89     -0.194433  13 C  px               71      0.192516  11 C  px        
    91      0.187316  13 C  pz               15     -0.182492   2 N  pz        
    54     -0.180760   8 C  pz               24      0.167931   3 N  pz        
    22     -0.157297   3 N  px              111      0.157798  17 C  px        

 Vector   31  Occ=2.000000D+00  E=-6.055435D-01
              MO Center= -1.3D+00, -3.6D-02, -7.4D-01, r^2= 7.3D+00
   Bfn.  Coefficient  Atom+Function         Bfn.  Coefficient  Atom+Function  
  ----- ------------  ---------------      ----- ------------  ---------------
    82      0.261441  12 C  pz              124      0.259856  19 C  pz        
    73     -0.206198  11 C  pz              113     -0.199693  17 C  pz        
    24      0.170496   3 N  pz               33      0.161960   5 C  px        
    22      0.150929   3 N  px        

 Vector   32  Occ=2.000000D+00  E=-5.961770D-01
              MO Center= -1.9D+00, -1.1D-01, -1.2D+00, r^2= 5.4D+00
   Bfn.  Coefficient  Atom+Function         Bfn.  Coefficient  Atom+Function  
  ----- ------------  ---------------      ----- ------------  ---------------
    80      0.310601  12 C  px              122      0.300999  19 C  px        
    91     -0.256759  13 C  pz              102     -0.231214  15 C  pz        
    89     -0.163914  13 C  px        

 Vector   33  Occ=2.000000D+00  E=-5.841016D-01
              MO Center=  1.2D+00, -2.7D-01,  7.2D-01, r^2= 6.2D+00
   Bfn.  Coefficient  Atom+Function         Bfn.  Coefficient  Atom+Function  
  ----- ------------  ---------------      ----- ------------  ---------------
    23      0.263424   3 N  py               34     -0.262858   5 C  py        
    44      0.232990   7 Cl py               47      0.192765   7 Cl py        
    14     -0.171755   2 N  py        

 Vector   34  Occ=2.000000D+00  E=-5.495311D-01
              MO Center=  4.1D-01,  3.5D-01,  3.3D-01, r^2= 6.0D+00
   Bfn.  Coefficient  Atom+Function         Bfn.  Coefficient  Atom+Function  
  ----- ------------  ---------------      ----- ------------  ---------------
    14      0.266735   2 N  py               53     -0.263910   8 C  py        
    23      0.222319   3 N  py               63      0.204742  10 Cl py        
    72      0.187904  11 C  py               66      0.181284  10 Cl py        
     5      0.154128   1 C  py               17      0.150829   2 N  py        

 Vector   35  Occ=2.000000D+00  E=-5.193741D-01
              MO Center= -2.7D+00, -1.2D-01, -1.6D+00, r^2= 4.8D+00
   Bfn.  Coefficient  Atom+Function         Bfn.  Coefficient  Atom+Function  
  ----- ------------  ---------------      ----- ------------  ---------------
   111      0.310112  17 C  px              100     -0.278737  15 C  px        
    80      0.270997  12 C  px              122     -0.239702  19 C  px        
    89      0.235559  13 C  px              117     -0.200384  18 H  s         
   118     -0.168473  18 H  s               124     -0.152757  19 C  pz        

 Vector   36  Occ=2.000000D+00  E=-5.042813D-01
              MO Center= -1.5D+00, -1.0D-01, -1.0D+00, r^2= 8.1D+00
   Bfn.  Coefficient  Atom+Function         Bfn.  Coefficient  Atom+Function  
  ----- ------------  ---------------      ----- ------------  ---------------
   113     -0.192638  17 C  pz               73      0.187833  11 C  pz        
   102      0.187020  15 C  pz              124      0.174002  19 C  pz        
    82     -0.165016  12 C  pz               14     -0.158814   2 N  py        

 Vector   37  Occ=2.000000D+00  E=-5.018620D-01
              MO Center= -1.4D+00, -1.6D-01, -1.1D+00, r^2= 7.9D+00
   Bfn.  Coefficient  Atom+Function         Bfn.  Coefficient  Atom+Function  
  ----- ------------  ---------------      ----- ------------  ---------------
    14      0.197855   2 N  py              113     -0.195218  17 C  pz        
   124      0.193798  19 C  pz               73      0.192812  11 C  pz        
   102      0.190949  15 C  pz               82     -0.163693  12 C  pz        
    91     -0.152955  13 C  pz              123     -0.153629  19 C  py        
   112     -0.151413  17 C  py        

 Vector   38  Occ=2.000000D+00  E=-4.763210D-01
              MO Center=  1.7D+00, -3.2D-01,  1.5D+00, r^2= 5.6D+00
   Bfn.  Coefficient  Atom+Function         Bfn.  Coefficient  Atom+Function  
  ----- ------------  ---------------      ----- ------------  ---------------
    48      0.381767   7 Cl pz               45      0.365824   7 Cl pz        
    63     -0.210028  10 Cl py               66     -0.209794  10 Cl py        
    67      0.193860  10 Cl pz               64      0.188304  10 Cl pz        
    44      0.167475   7 Cl py               47      0.167683   7 Cl py        

 Vector   39  Occ=2.000000D+00  E=-4.739831D-01
              MO Center=  1.1D+00,  2.1D-01,  1.3D+00, r^2= 6.4D+00
   Bfn.  Coefficient  Atom+Function         Bfn.  Coefficient  Atom+Function  
  ----- ------------  ---------------      ----- ------------  ---------------
    67      0.339566  10 Cl pz               64      0.320489  10 Cl pz        
    46      0.283121   7 Cl px               43      0.263488   7 Cl px        
    65      0.185754  10 Cl px               62      0.176059  10 Cl px        

 Vector   40  Occ=2.000000D+00  E=-4.651704D-01
              MO Center=  1.3D+00,  1.4D-01,  1.7D+00, r^2= 5.3D+00
   Bfn.  Coefficient  Atom+Function         Bfn.  Coefficient  Atom+Function  
  ----- ------------  ---------------      ----- ------------  ---------------
    67     -0.248199  10 Cl pz               48      0.245213   7 Cl pz        
    64     -0.240613  10 Cl pz               45      0.237568   7 Cl pz        
    66      0.221545  10 Cl py               63      0.212398  10 Cl py        
    65      0.202827  10 Cl px               47      0.201622   7 Cl py        
    62      0.199773  10 Cl px               44      0.192323   7 Cl py        

 Vector   41  Occ=2.000000D+00  E=-4.589054D-01
              MO Center=  1.1D+00,  2.3D-01,  1.4D+00, r^2= 5.9D+00
   Bfn.  Coefficient  Atom+Function         Bfn.  Coefficient  Atom+Function  
  ----- ------------  ---------------      ----- ------------  ---------------
    65      0.391898  10 Cl px               62      0.364842  10 Cl px        
    46     -0.349168   7 Cl px               43     -0.323899   7 Cl px        
    33      0.195919   5 C  px               52     -0.192446   8 C  px        

 Vector   42  Occ=2.000000D+00  E=-4.337199D-01
              MO Center=  4.7D-01, -2.2D-02, -3.3D-01, r^2= 8.2D+00
   Bfn.  Coefficient  Atom+Function         Bfn.  Coefficient  Atom+Function  
  ----- ------------  ---------------      ----- ------------  ---------------
    14      0.430455   2 N  py               23     -0.341874   3 N  py        
    17      0.282115   2 N  py               26     -0.232802   3 N  py        
   112      0.210910  17 C  py              123      0.164090  19 C  py        
   101      0.152411  15 C  py        

 Vector   43  Occ=2.000000D+00  E=-3.776014D-01
              MO Center=  1.4D+00,  1.2D-01, -1.2D+00, r^2= 2.6D+00
   Bfn.  Coefficient  Atom+Function         Bfn.  Coefficient  Atom+Function  
  ----- ------------  ---------------      ----- ------------  ---------------
     6     -0.556774   1 C  pz                3      0.506700   1 C  s         
     2      0.215162   1 C  s                 9     -0.187396   1 C  pz        
    35     -0.170549   5 C  pz               54     -0.164012   8 C  pz        
    15      0.154890   2 N  pz               24      0.153611   3 N  pz        

 Vector   44  Occ=2.000000D+00  E=-3.481961D-01
              MO Center= -2.3D+00, -1.3D-01, -1.5D+00, r^2= 3.3D+00
   Bfn.  Coefficient  Atom+Function         Bfn.  Coefficient  Atom+Function  
  ----- ------------  ---------------      ----- ------------  ---------------
    90      0.364658  13 C  py              101     -0.354498  15 C  py        
    81     -0.328794  12 C  py              123      0.307553  19 C  py        
    93      0.185997  13 C  py              104     -0.173501  15 C  py        
    84     -0.161221  12 C  py        

 Vector   45  Occ=2.000000D+00  E=-3.181830D-01
              MO Center= -1.7D+00, -7.9D-02, -1.2D+00, r^2= 4.9D+00
   Bfn.  Coefficient  Atom+Function         Bfn.  Coefficient  Atom+Function  
  ----- ------------  ---------------      ----- ------------  ---------------
   112     -0.355881  17 C  py               72      0.345391  11 C  py        
    23     -0.294765   3 N  py               26     -0.252306   3 N  py        
    81      0.250558  12 C  py               75      0.211172  11 C  py        
   115     -0.197437  17 C  py               90      0.196096  13 C  py        
   123     -0.193113  19 C  py               14      0.152960   2 N  py        

 Vector   46  Occ=0.000000D+00  E= 1.080932D-01
              MO Center= -7.4D-01, -5.8D-02, -1.3D+00, r^2= 7.4D+00
   Bfn.  Coefficient  Atom+Function         Bfn.  Coefficient  Atom+Function  
  ----- ------------  ---------------      ----- ------------  ---------------
    84      0.496276  12 C  py                8      0.453760   1 C  py        
   126      0.442923  19 C  py               75     -0.399964  11 C  py        
   115     -0.374363  17 C  py                5      0.346336   1 C  py        
    72     -0.276323  11 C  py              123      0.265869  19 C  py        
    81      0.263924  12 C  py              112     -0.225244  17 C  py        

 Vector   47  Occ=0.000000D+00  E= 1.210748D-01
              MO Center= -2.2D+00, -1.2D-01, -1.3D+00, r^2= 4.9D+00
   Bfn.  Coefficient  Atom+Function         Bfn.  Coefficient  Atom+Function  
  ----- ------------  ---------------      ----- ------------  ---------------
    93      0.658519  13 C  py              104      0.634154  15 C  py        
    75     -0.398721  11 C  py              101      0.374965  15 C  py        
    90      0.367674  13 C  py              115     -0.336117  17 C  py        
   126     -0.310814  19 C  py               72     -0.258774  11 C  py        
    84     -0.258038  12 C  py               56      0.198566   8 C  py        

 Vector   48  Occ=0.000000D+00  E= 1.360117D-01
              MO Center=  2.2D-01,  8.9D-02,  1.6D-01, r^2= 8.6D+00
   Bfn.  Coefficient  Atom+Function         Bfn.  Coefficient  Atom+Function  
  ----- ------------  ---------------      ----- ------------  ---------------
    51      0.471976   8 C  s                56      0.463196   8 C  py        
    61     -0.437556  10 Cl s                66      0.439131  10 Cl py        
    37      0.432480   5 C  py               42      0.406053   7 Cl s         
    47      0.394458   7 Cl py              126      0.369835  19 C  py        
    32     -0.359012   5 C  s               115     -0.332128  17 C  py        

 Vector   49  Occ=0.000000D+00  E= 1.819635D-01
              MO Center=  1.6D+00,  5.8D-02,  9.5D-01, r^2= 5.8D+00
   Bfn.  Coefficient  Atom+Function         Bfn.  Coefficient  Atom+Function  
  ----- ------------  ---------------      ----- ------------  ---------------
    32      1.239663   5 C  s                55     -0.827878   8 C  px        
    37     -0.689608   5 C  py               12      0.645264   2 N  s         
    29     -0.634056   4 H  s                56      0.614491   8 C  py        
    61     -0.549395  10 Cl s                47     -0.526807   7 Cl py        
    42     -0.510761   7 Cl s                66      0.510502  10 Cl py        

 Vector   50  Occ=0.000000D+00  E= 2.021106D-01
              MO Center=  6.2D-01,  5.4D-03, -2.8D-01, r^2= 8.0D+00
   Bfn.  Coefficient  Atom+Function         Bfn.  Coefficient  Atom+Function  
  ----- ------------  ---------------      ----- ------------  ---------------
    32      0.783855   5 C  s                51     -0.752874   8 C  s         
     8     -0.640441   1 C  py               26      0.511804   3 N  py        
    17      0.436357   2 N  py              115     -0.432226  17 C  py        
    56     -0.429707   8 C  py               61      0.416869  10 Cl s         
    42     -0.413686   7 Cl s                37     -0.394572   5 C  py        

 Vector   51  Occ=0.000000D+00  E= 2.192314D-01
              MO Center=  2.3D+00,  1.3D-01,  5.7D-01, r^2= 6.8D+00
   Bfn.  Coefficient  Atom+Function         Bfn.  Coefficient  Atom+Function  
  ----- ------------  ---------------      ----- ------------  ---------------
    51      2.379009   8 C  s                36      1.738531   5 C  px        
    29      1.276821   4 H  s                16     -1.051986   2 N  px        
    32     -0.968002   5 C  s                12     -0.929030   2 N  s         
    55      0.710757   8 C  px               59     -0.471716   9 H  s         
     3     -0.454854   1 C  s                88      0.432457  13 C  s         

 Vector   52  Occ=0.000000D+00  E= 2.449537D-01
              MO Center=  1.4D+00,  6.9D-02,  7.0D-01, r^2= 7.9D+00
   Bfn.  Coefficient  Atom+Function         Bfn.  Coefficient  Atom+Function  
  ----- ------------  ---------------      ----- ------------  ---------------
    32      2.573740   5 C  s                55     -1.494394   8 C  px        
    12     -0.961364   2 N  s                 3     -0.909520   1 C  s         
    29      0.774937   4 H  s                70      0.770938  11 C  s         
    74     -0.764023  11 C  px               51     -0.733089   8 C  s         
    88     -0.710199  13 C  s                38     -0.670423   5 C  pz        

 Vector   53  Occ=0.000000D+00  E= 2.566913D-01
              MO Center=  7.6D-01, -1.1D-01,  8.3D-01, r^2= 6.7D+00
   Bfn.  Coefficient  Atom+Function         Bfn.  Coefficient  Atom+Function  
  ----- ------------  ---------------      ----- ------------  ---------------
    51      1.521362   8 C  s                57     -1.490164   8 C  pz        
    70     -1.151230  11 C  s                27     -1.066695   3 N  pz        
    21     -0.971172   3 N  s                29     -0.855327   4 H  s         
    74     -0.739184  11 C  px               88      0.613174  13 C  s         
    25     -0.593823   3 N  px               55     -0.594927   8 C  px        

 Vector   54  Occ=0.000000D+00  E= 2.719875D-01
              MO Center= -1.5D+00, -5.2D-02, -6.7D-01, r^2= 1.1D+01
   Bfn.  Coefficient  Atom+Function         Bfn.  Coefficient  Atom+Function  
  ----- ------------  ---------------      ----- ------------  ---------------
   121      1.855943  19 C  s                74      1.500569  11 C  px        
    70     -1.348010  11 C  s                51     -1.238866   8 C  s         
   114     -1.107279  17 C  px              110     -1.001154  17 C  s         
    99      0.975408  15 C  s                85      0.840837  12 C  pz        
    79      0.814656  12 C  s                92      0.813617  13 C  px        

 Vector   55  Occ=0.000000D+00  E= 2.879552D-01
              MO Center=  8.4D-01,  1.4D-01,  1.0D-01, r^2= 1.2D+01
   Bfn.  Coefficient  Atom+Function         Bfn.  Coefficient  Atom+Function  
  ----- ------------  ---------------      ----- ------------  ---------------
    29      1.364521   4 H  s               110     -1.317053  17 C  s         
    38      1.024528   5 C  pz               55     -0.961240   8 C  px        
    16     -0.920554   2 N  px               32     -0.885203   5 C  s         
    18      0.858851   2 N  pz               36     -0.845990   5 C  px        
    40      0.810036   6 H  s                59     -0.743196   9 H  s         

 Vector   56  Occ=0.000000D+00  E= 2.966204D-01
              MO Center= -2.8D+00, -1.7D-01, -1.2D+00, r^2= 1.2D+01
   Bfn.  Coefficient  Atom+Function         Bfn.  Coefficient  Atom+Function  
  ----- ------------  ---------------      ----- ------------  ---------------
   110      2.754140  17 C  s               105     -1.291337  15 C  pz        
    88     -1.200674  13 C  s               114      1.142299  17 C  px        
   127      1.113477  19 C  pz              103      1.058978  15 C  px        
    92      0.950561  13 C  px              121      0.916869  19 C  s         
    94      0.885474  13 C  pz               99     -0.792751  15 C  s         

 Vector   57  Occ=0.000000D+00  E= 3.006849D-01
              MO Center= -3.0D+00, -2.0D-01, -2.5D+00, r^2= 9.5D+00
   Bfn.  Coefficient  Atom+Function         Bfn.  Coefficient  Atom+Function  
  ----- ------------  ---------------      ----- ------------  ---------------
    99      2.766264  15 C  s               121     -2.131938  19 C  s         
    83      1.823162  12 C  px              116      1.080101  17 C  pz        
   127      1.009637  19 C  pz               94     -0.971139  13 C  pz        
   110      0.938438  17 C  s                76      0.908052  11 C  pz        
   105      0.890407  15 C  pz               92     -0.835857  13 C  px        

 Vector   58  Occ=0.000000D+00  E= 3.228468D-01
              MO Center= -7.9D-01, -6.0D-02, -1.1D+00, r^2= 1.1D+01
   Bfn.  Coefficient  Atom+Function         Bfn.  Coefficient  Atom+Function  
  ----- ------------  ---------------      ----- ------------  ---------------
    88      2.720103  13 C  s                76     -2.364899  11 C  pz        
    79     -2.178600  12 C  s                74      1.589168  11 C  px        
    85     -1.401148  12 C  pz               92      1.293746  13 C  px        
     3     -1.156263   1 C  s                99     -1.143554  15 C  s         
    83     -0.927545  12 C  px              121      0.809960  19 C  s         

 Vector   59  Occ=0.000000D+00  E= 3.323121D-01
              MO Center= -1.2D+00, -2.2D-01, -1.1D+00, r^2= 1.3D+01
   Bfn.  Coefficient  Atom+Function         Bfn.  Coefficient  Atom+Function  
  ----- ------------  ---------------      ----- ------------  ---------------
    79      2.576888  12 C  s               121     -2.431981  19 C  s         
    70     -2.249808  11 C  s                99     -2.019472  15 C  s         
    88      1.741990  13 C  s               110      1.748662  17 C  s         
   105     -1.669129  15 C  pz              114      1.651570  17 C  px        
   125     -1.547017  19 C  px               94     -1.359384  13 C  pz        

 Vector   60  Occ=0.000000D+00  E= 3.338711D-01
              MO Center= -2.0D+00, -4.4D-02, -1.3D+00, r^2= 6.7D+00
   Bfn.  Coefficient  Atom+Function         Bfn.  Coefficient  Atom+Function  
  ----- ------------  ---------------      ----- ------------  ---------------
    75      1.162085  11 C  py               84     -1.087497  12 C  py        
    93     -1.083927  13 C  py              104      1.000222  15 C  py        
   126      0.954925  19 C  py              115     -0.943237  17 C  py        
    79      0.799386  12 C  s               121     -0.685764  19 C  s         
    88      0.678271  13 C  s               125     -0.641598  19 C  px        

 Vector   61  Occ=0.000000D+00  E= 3.451826D-01
              MO Center= -4.2D-01,  2.9D-02, -1.0D+00, r^2= 1.2D+01
   Bfn.  Coefficient  Atom+Function         Bfn.  Coefficient  Atom+Function  
  ----- ------------  ---------------      ----- ------------  ---------------
    76      2.349069  11 C  pz               88     -2.095550  13 C  s         
    79      1.750152  12 C  s                92     -1.733151  13 C  px        
     3     -1.297608   1 C  s                74     -1.189003  11 C  px        
    27     -1.074190   3 N  pz               85      1.011620  12 C  pz        
     7      0.984308   1 C  px               94      0.974611  13 C  pz        

 Vector   62  Occ=0.000000D+00  E= 3.660939D-01
              MO Center= -1.8D-01,  1.4D-01, -1.1D-01, r^2= 1.1D+01
   Bfn.  Coefficient  Atom+Function         Bfn.  Coefficient  Atom+Function  
  ----- ------------  ---------------      ----- ------------  ---------------
    40      1.464057   6 H  s                74      1.317336  11 C  px        
    94     -1.281036  13 C  pz               88      1.257631  13 C  s         
    76     -1.080037  11 C  pz              131      1.031878  21 H  s         
    37     -0.800168   5 C  py               57      0.711140   8 C  pz        
     7      0.668474   1 C  px              129      0.647323  20 H  s         

 Vector   63  Occ=0.000000D+00  E= 3.757207D-01
              MO Center= -6.9D-02, -2.9D-02, -7.1D-01, r^2= 1.2D+01
   Bfn.  Coefficient  Atom+Function         Bfn.  Coefficient  Atom+Function  
  ----- ------------  ---------------      ----- ------------  ---------------
     3      1.868926   1 C  s                76     -1.571634  11 C  pz        
    85     -1.452070  12 C  pz               79     -1.349448  12 C  s         
    59     -1.258235   9 H  s                57      1.184513   8 C  pz        
    74     -1.102368  11 C  px               25     -1.095079   3 N  px        
     9      1.064899   1 C  pz               70      1.001437  11 C  s         

 Vector   64  Occ=0.000000D+00  E= 3.979526D-01
              MO Center= -1.4D+00, -1.0D-01, -7.2D-01, r^2= 1.4D+01
   Bfn.  Coefficient  Atom+Function         Bfn.  Coefficient  Atom+Function  
  ----- ------------  ---------------      ----- ------------  ---------------
    38      1.569135   5 C  pz               57     -1.496599   8 C  pz        
   103     -1.318908  15 C  px              125     -1.311110  19 C  px        
   105     -1.268417  15 C  pz               74     -1.231544  11 C  px        
   107     -1.122739  16 H  s                88      1.114495  13 C  s         
    59      1.081594   9 H  s                79      1.014367  12 C  s         

 Vector   65  Occ=0.000000D+00  E= 4.071483D-01
              MO Center= -5.9D-01,  3.9D-03, -5.3D-01, r^2= 1.4D+01
   Bfn.  Coefficient  Atom+Function         Bfn.  Coefficient  Atom+Function  
  ----- ------------  ---------------      ----- ------------  ---------------
    38      1.813641   5 C  pz               40     -1.408579   6 H  s         
   116     -1.218596  17 C  pz               57     -1.127413   8 C  pz        
   129      1.104183  20 H  s                 7      1.077802   1 C  px        
   103      1.004155  15 C  px               83      0.986127  12 C  px        
   127     -0.938729  19 C  pz               96     -0.892651  14 H  s         

 Vector   66  Occ=0.000000D+00  E= 4.233285D-01
              MO Center= -1.1D+00,  2.7D-03, -9.7D-01, r^2= 1.1D+01
   Bfn.  Coefficient  Atom+Function         Bfn.  Coefficient  Atom+Function  
  ----- ------------  ---------------      ----- ------------  ---------------
    70      2.793800  11 C  s                92     -1.620958  13 C  px        
     3      1.340868   1 C  s               110     -1.183037  17 C  s         
    94      1.161329  13 C  pz               57     -1.138016   8 C  pz        
    36     -1.079161   5 C  px               85     -1.038445  12 C  pz        
   127     -0.998123  19 C  pz                7      0.969308   1 C  px        

 Vector   67  Occ=0.000000D+00  E= 4.427035D-01
              MO Center= -9.3D-01, -1.2D-01, -7.2D-01, r^2= 9.2D+00
   Bfn.  Coefficient  Atom+Function         Bfn.  Coefficient  Atom+Function  
  ----- ------------  ---------------      ----- ------------  ---------------
    70      2.426092  11 C  s                92     -1.394286  13 C  px        
    56      1.241174   8 C  py               74      1.237357  11 C  px        
    51     -1.130951   8 C  s                37     -1.056130   5 C  py        
     7     -0.998743   1 C  px               85     -0.972787  12 C  pz        
    88      0.936354  13 C  s                99     -0.902109  15 C  s         

 Vector   68  Occ=0.000000D+00  E= 4.543416D-01
              MO Center= -2.1D-01, -3.2D-01, -6.4D-01, r^2= 8.8D+00
   Bfn.  Coefficient  Atom+Function         Bfn.  Coefficient  Atom+Function  
  ----- ------------  ---------------      ----- ------------  ---------------
    74      1.590298  11 C  px               94     -1.286323  13 C  pz        
    38     -1.075612   5 C  pz               40      0.939758   6 H  s         
   131      0.934654  21 H  s               116     -0.843844  17 C  pz        
    36     -0.774534   5 C  px               57      0.720630   8 C  pz        
   118     -0.677216  18 H  s                37     -0.669834   5 C  py        

 Vector   69  Occ=0.000000D+00  E= 4.692693D-01
              MO Center= -5.4D-01,  2.2D-01, -5.0D-01, r^2= 8.8D+00
   Bfn.  Coefficient  Atom+Function         Bfn.  Coefficient  Atom+Function  
  ----- ------------  ---------------      ----- ------------  ---------------
    57      1.767877   8 C  pz               94      1.670645  13 C  pz        
   131     -1.554543  21 H  s                96     -1.464802  14 H  s         
    59     -1.289035   9 H  s                74     -1.269922  11 C  px        
   114      1.224248  17 C  px              118      1.204485  18 H  s         
    70      1.174035  11 C  s                21      1.073831   3 N  s         

 Vector   70  Occ=0.000000D+00  E= 4.772455D-01
              MO Center= -1.3D+00,  2.9D-03, -5.7D-01, r^2= 1.0D+01
   Bfn.  Coefficient  Atom+Function         Bfn.  Coefficient  Atom+Function  
  ----- ------------  ---------------      ----- ------------  ---------------
    74      1.877800  11 C  px              131      1.751065  21 H  s         
    94     -1.715588  13 C  pz               76      1.314751  11 C  pz        
    25      1.208853   3 N  px              107      1.061198  16 H  s         
    92     -0.997679  13 C  px               21     -0.925626   3 N  s         
    37     -0.800371   5 C  py               55     -0.759611   8 C  px        

 Vector   71  Occ=0.000000D+00  E= 4.866926D-01
              MO Center= -8.4D-01, -4.0D-02, -8.2D-01, r^2= 1.0D+01
   Bfn.  Coefficient  Atom+Function         Bfn.  Coefficient  Atom+Function  
  ----- ------------  ---------------      ----- ------------  ---------------
    74      1.503211  11 C  px               70      1.191094  11 C  s         
    94     -1.089489  13 C  pz               37      1.021791   5 C  py        
    25      1.002720   3 N  px               21     -0.910873   3 N  s         
   131      0.856142  21 H  s                83     -0.779278  12 C  px        
    76      0.690155  11 C  pz              118     -0.677986  18 H  s         

 Vector   72  Occ=0.000000D+00  E= 4.953881D-01
              MO Center= -1.2D+00,  4.8D-02, -8.8D-01, r^2= 9.4D+00
   Bfn.  Coefficient  Atom+Function         Bfn.  Coefficient  Atom+Function  
  ----- ------------  ---------------      ----- ------------  ---------------
    56      1.442534   8 C  py              103      1.408828  15 C  px        
    70     -1.244640  11 C  s                59      1.202742   9 H  s         
    85      1.182709  12 C  pz               37     -0.948165   5 C  py        
    55      0.871906   8 C  px               57     -0.855236   8 C  pz        
   116     -0.723273  17 C  pz               92     -0.694252  13 C  px        

 Vector   73  Occ=0.000000D+00  E= 5.245710D-01
              MO Center= -1.4D+00,  1.0D-01, -1.2D+00, r^2= 7.6D+00
   Bfn.  Coefficient  Atom+Function         Bfn.  Coefficient  Atom+Function  
  ----- ------------  ---------------      ----- ------------  ---------------
    56      1.339710   8 C  py               92      1.282071  13 C  px        
   103     -1.103044  15 C  px              116      1.096547  17 C  pz        
    59      0.846958   9 H  s               125      0.771706  19 C  px        
    83     -0.714662  12 C  px               76     -0.697120  11 C  pz        
   127      0.695379  19 C  pz               96      0.641866  14 H  s         


 center of mass
 --------------
 x =   0.09246375 y =   0.00551363 z =   0.07894565

 moments of inertia (a.u.)
 ------------------
        2486.489502820085         345.150993081560       -1541.421667304630
         345.150993081560        5317.412004831945         -92.938744682521
       -1541.421667304630         -92.938744682521        4108.560591091809

  Mulliken analysis of the total density
  --------------------------------------

    Atom       Charge   Shell Charges
 -----------   ------   -------------------------------------------------------
    1 C    6     5.76   2.00  0.81  0.75  2.07  0.13
    2 N    7     7.61   2.00  0.79  0.77  3.10  0.94
    3 N    7     7.51   2.00  0.78  0.81  3.08  0.84
    4 H    1     0.59   0.48  0.11
    5 C    6     6.24   2.00  0.69  0.84  2.46  0.24
    6 H    1     0.70   0.50  0.20
    7 Cl   7     7.05   1.15  0.79  2.59  2.51
    8 C    6     6.20   2.00  0.69  0.80  2.46  0.25
    9 H    1     0.69   0.50  0.19
   10 Cl   7     7.04   1.16  0.79  2.59  2.50
   11 C    6     5.48   2.00  0.74  0.32  2.49 -0.06
   12 C    6     6.30   2.00  0.72  0.59  2.58  0.40
   13 C    6     6.30   2.00  0.72  0.58  2.59  0.42
   14 H    1     0.73   0.51  0.22
   15 C    6     6.20   2.00  0.73  0.58  2.55  0.34
   16 H    1     0.79   0.52  0.27
   17 C    6     6.24   2.00  0.73  0.57  2.57  0.37
   18 H    1     0.79   0.52  0.27
   19 C    6     6.21   2.00  0.73  0.58  2.55  0.35
   20 H    1     0.79   0.52  0.27
   21 H    1     0.77   0.52  0.25

       Multipole analysis of the density wrt the origin
       ------------------------------------------------

     L   x y z        total         open         nuclear
     -   - - -        -----         ----         -------
     0   0 0 0      0.000000      0.000000     90.000000

     1   1 0 0      0.178600      0.000000    -52.744211
     1   0 1 0      0.022128      0.000000     -2.466883
     1   0 0 1      0.272530      0.000000    -65.460521

     2   2 0 0    -57.550756      0.000000   1584.669041
     2   1 1 0      4.882230      0.000000    -12.380393
     2   1 0 1      0.960178      0.000000    632.191203
     2   0 2 0    -73.479484      0.000000    134.647192
     2   0 1 1      0.365221      0.000000     38.864909
     2   0 0 2    -67.347163      0.000000    764.893189


 Task  times  cpu:       22.9s     wall:       26.3s


                                NWChem Input Module
                                -------------------


                                Step2: SP with DFT
                                ------------------

                                 NWChem DFT Module
                                 -----------------


                                Step2: SP with DFT


  Caching 1-el integrals 
  itol2e modified to match energy
  convergence criterion.
  tol_rho modified to match energy
  convergence criterion.

            General Information
            -------------------
          SCF calculation type: DFT
          Wavefunction type:  closed shell.
          No. of atoms     :    21
          No. of electrons :    90
           Alpha electrons :    45
            Beta electrons :    45
          Charge           :     0
          Spin multiplicity:     1
          Use of symmetry is: off; symmetry adaption is: off
          Maximum number of iterations:  30
          This is a Direct SCF calculation.
          AO basis - number of functions:   131
                     number of shells:    79
          Convergence on energy requested: 1.00D-08
          Convergence on density requested: 1.00D-07
          Convergence on gradient requested: 1.00D-06

              XC Information
              --------------
                         PBE0 Method XC Functional
                     Hartree-Fock (Exact) Exchange  0.250          
          PerdewBurkeErnzerhof Exchange Functional  0.750          
            Perdew 1991 LDA Correlation Functional  1.000 local    
           PerdewBurkeErnz. Correlation Functional  1.000 non-local

             Grid Information
             ----------------
          Grid used for XC integration:  xfine     
          Radial quadrature: Mura-Knowles        
          Angular quadrature: Lebedev. 
          Tag              B.-S. Rad. Rad. Pts. Rad. Cut. Ang. Pts.
          ---              ---------- --------- --------- ---------
          C1                  0.70      100          13.0      1454
          N2                  0.65      100          15.0      1454
          N3                  0.65      100          12.0      1454
          H4                  0.35      100          16.0      1202
          C5                  0.70      100          15.0      1454
          H6                  0.35      100          16.0      1202
          Cl7                 1.00      125          17.0      1454
          C8                  0.70      100          14.0      1454
          H9                  0.35      100          13.0      1202
          Cl10                1.00      125          14.0      1454
          C11                 0.70      100          12.0      1454
          C12                 0.70      100          13.0      1454
          C13                 0.70      100          13.0      1454
          H14                 0.35      100          13.0      1202
          C15                 0.70      100          15.0      1454
          H16                 0.35      100          16.0      1202
          C17                 0.70      100          15.0      1454
          H18                 0.35      100          15.0      1202
          C19                 0.70      100          14.0      1454
          H20                 0.35      100          15.0      1202
          H21                 0.35      100          13.0      1202
          Grid pruning is: on 
          Number of quadrature shells:  2150
          Spatial weights used:  Erf1

          Convergence Information
          -----------------------
          Convergence aids based upon iterative change in 
          total energy or number of iterations. 
          Levelshifting, if invoked, occurs when the 
          HOMO/LUMO gap drops below (HL_TOL): 1.00D-02
          DIIS, if invoked, will attempt to extrapolate 
          using up to (NFOCK): 10 stored Fock matrices.

                    Damping( 0%)  Levelshifting(0.5)       DIIS
                  --------------- ------------------- ---------------
          dE  on:    start            ASAP                start   
          dE off:    2 iters         30 iters           150 iters 


      Screening Tolerance Information
      -------------------------------
          Density screening/tol_rho: 1.00D-11
          AO Gaussian exp screening on grid/accAOfunc:  18
          CD Gaussian exp screening on grid/accCDfunc:  20
          XC Gaussian exp screening on grid/accXCfunc:  20
          Schwarz screening/accCoul: 1.00D-09


      Superposition of Atomic Density Guess
      -------------------------------------

 Sum of atomic energies:        -486.23288150

      Non-variational initial energy
      ------------------------------

 Total energy =    -488.569236
 1-e energy   =   -2036.242889
 2-e energy   =     853.956430
 HOMO         =      -0.226871
 LUMO         =      -0.009344

   Time after variat. SCF:     26.5
   Time prior to 1st pass:     26.6

           Memory utilization after 1st SCF pass: 
           Heap Space remaining (MW):       52.40            52403266
          Stack Space remaining (MW):       52.43            52427461

   convergence    iter        energy       DeltaE   RMS-Dens  Diis-err    time
 ---------------- ----- ----------------- --------- --------- ---------  ------
 d= 0,ls=0.0,diis     1   -486.3115083378 -1.18D+03  2.09D-02  1.27D+00    28.8
 Grid integrated density:      90.000001001835
 Requested integration accuracy:   0.10E-07
 d= 0,ls=0.0,diis     2   -486.2446529116  6.69D-02  1.28D-02  1.85D+00    30.7
 d= 0,ls=0.0,diis     3   -486.4983456688 -2.54D-01  2.54D-03  6.17D-02    32.7
 d= 0,ls=0.0,diis     4   -486.5039886054 -5.64D-03  1.10D-03  2.52D-02    34.7
 d= 0,ls=0.0,diis     5   -486.5071730057 -3.18D-03  2.54D-04  6.35D-04    36.7
  Resetting Diis
 d= 0,ls=0.0,diis     6   -486.5072384295 -6.54D-05  1.02D-04  1.56D-04    38.9
 d= 0,ls=0.0,diis     7   -486.5072588700 -2.04D-05  3.78D-05  6.29D-06    41.0
 d= 0,ls=0.0,diis     8   -486.5072580260  8.44D-07  2.18D-05  1.35D-05    43.0
 d= 0,ls=0.0,diis     9   -486.5072596620 -1.64D-06  3.76D-06  1.88D-07    45.0
 d= 0,ls=0.0,diis    10   -486.5072596870 -2.50D-08  1.08D-06  1.64D-08    46.9
 d= 0,ls=0.0,diis    11   -486.5072596890 -1.97D-09  4.09D-07  1.44D-09    49.0
 d= 0,ls=0.0,diis    12   -486.5072596892 -1.83D-10  1.70D-07  3.07D-10    50.9
 d= 0,ls=0.0,diis    13   -486.5072596892 -4.55D-11  3.89D-08  2.03D-11    53.0


         Total DFT energy =     -486.507259689235
      One electron energy =    -2041.751386506679
           Coulomb energy =      932.337366373191
    Exchange-Corr. energy =      -70.797656548810
 Nuclear repulsion energy =      693.717222823059

    Dispersion correction =       -0.012805829995

 Numeric. integr. density =       90.000000816171

     Total iterative time =     26.4s



                       DFT Final Molecular Orbital Analysis
                       ------------------------------------

 Vector   11  Occ=2.000000D+00  E=-1.024401D+01
              MO Center= -1.3D+00, -7.8D-02, -2.3D+00, r^2= 7.0D-02
   Bfn.  Coefficient  Atom+Function         Bfn.  Coefficient  Atom+Function  
  ----- ------------  ---------------      ----- ------------  ---------------
    77      0.992008  12 C  s         

 Vector   12  Occ=2.000000D+00  E=-1.068909D+00
              MO Center=  1.3D+00,  9.3D-02, -1.5D-01, r^2= 1.9D+00
   Bfn.  Coefficient  Atom+Function         Bfn.  Coefficient  Atom+Function  
  ----- ------------  ---------------      ----- ------------  ---------------
    20      0.264468   3 N  s                11      0.244077   2 N  s         
    21      0.232672   3 N  s                12      0.198861   2 N  s         
     2      0.176463   1 C  s         

 Vector   13  Occ=2.000000D+00  E=-9.698705D-01
              MO Center=  1.1D+00,  2.5D-02, -1.9D-01, r^2= 3.4D+00
   Bfn.  Coefficient  Atom+Function         Bfn.  Coefficient  Atom+Function  
  ----- ------------  ---------------      ----- ------------  ---------------
    11      0.281214   2 N  s                20     -0.267801   3 N  s         
    21     -0.258321   3 N  s                12      0.247137   2 N  s         
    69     -0.165852  11 C  s                32      0.164326   5 C  s         

 Vector   14  Occ=2.000000D+00  E=-9.154936D-01
              MO Center=  1.1D+00,  2.9D-01,  9.8D-01, r^2= 3.9D+00
   Bfn.  Coefficient  Atom+Function         Bfn.  Coefficient  Atom+Function  
  ----- ------------  ---------------      ----- ------------  ---------------
    60      0.316361  10 Cl s                41      0.231622   7 Cl s         
    51      0.203607   8 C  s                50      0.188919   8 C  s         
[...]
          26    -0.00713    -0.03546    -0.40625    -0.43247    -0.20024     0.08691
          27    -0.00481     0.02944     0.33795     0.36036     0.16643    -0.07274
          28     0.00009     0.00002     0.00001    -0.00006     0.00001     0.00008
          29    -0.00021     0.00000    -0.00016    -0.00019     0.00004     0.00006
          30    -0.00025     0.00002     0.00005     0.00004     0.00011     0.00000
          31    -0.08808     0.00075     0.00123    -0.00039     0.00013     0.00297
          32    -0.00914     0.00006     0.00004     0.00001    -0.00004     0.00019
          33    -0.03821    -0.00014    -0.00118     0.00027    -0.00013    -0.00074
          34     0.10459     0.00647    -0.00824     0.00794     0.00065     0.01416
          35     0.01371    -0.00002    -0.00004    -0.00002    -0.00002     0.00011
          36     0.08423    -0.00705     0.00829    -0.00818    -0.00087    -0.01339
          37     0.12864     0.00055     0.00190    -0.00002     0.00050     0.00610
          38     0.01073     0.00201     0.00295    -0.00142     0.00027     0.00604
          39     0.01208     0.01916     0.02808    -0.01351     0.00252     0.05467
          40    -0.07066    -0.09337     0.11183    -0.10912    -0.01050    -0.17887
          41    -0.01376    -0.00178     0.00218    -0.00205    -0.00016    -0.00337
          42    -0.14759     0.07504    -0.08880     0.08733     0.00867     0.14323
          43    -0.11642     0.00696    -0.00575     0.00492     0.00057     0.00120
          44    -0.00994     0.00343    -0.00337     0.00313     0.00040     0.00233
          45    -0.01628     0.04019    -0.04086     0.03792     0.00482     0.03101
          46     0.10734    -0.06700     0.06520    -0.05974    -0.00743    -0.04362
          47     0.00436    -0.03930     0.03875    -0.03568    -0.00448    -0.02771
          48    -0.05481    -0.47354     0.46826    -0.43129    -0.05411    -0.33668
          49     0.04843    -0.04414     0.00886     0.00066     0.00184     0.04780
          50     0.00569    -0.00464     0.00117    -0.00016     0.00016     0.00497
          51     0.02644    -0.01721     0.00667    -0.00307     0.00026     0.01722
          52     0.06397     0.52260    -0.11344     0.00418    -0.01942    -0.52783
          53     0.00606     0.05524    -0.01223     0.00056    -0.00204    -0.05561
          54     0.01663     0.20562    -0.04787     0.00522    -0.00713    -0.20569
          55    -0.09311     0.03660     0.02470    -0.02847    -0.00410    -0.00390
          56    -0.01273     0.00041     0.00010    -0.00017    -0.00004    -0.00049
          57    -0.07312    -0.02811    -0.02163     0.02351     0.00309    -0.00268
          58     0.04751    -0.42324    -0.29233     0.32810     0.04511     0.01496
          59     0.01278    -0.00353    -0.00239     0.00253     0.00030     0.00040
          60     0.10953     0.33948     0.23698    -0.26432    -0.03609    -0.00625
          61    -0.15789    -0.02760    -0.04036     0.01880    -0.00401    -0.07851
          62    -0.00663    -0.02626    -0.03797     0.01785    -0.00352    -0.07100
          63     0.05162    -0.22879    -0.32523     0.16230    -0.02724    -0.62075

                   61          62          63
 
 P.Frequency     3266.05     3274.98     3740.61
 
           1     0.00014    -0.00024     0.00081
           2     0.00006    -0.00007    -0.00002
           3     0.00022    -0.00019     0.00175
           4    -0.00004     0.00006    -0.06828
           5    -0.00002     0.00002    -0.00662
           6     0.00012    -0.00002     0.02258
           7     0.00046     0.00009     0.00159
           8    -0.00001     0.00003     0.00023
           9    -0.00042     0.00055    -0.00038
          10    -0.00024     0.00033     0.90608
          11     0.00005    -0.00000     0.08159
          12     0.00022    -0.00000    -0.30317
          13    -0.00044     0.00004     0.00027
          14    -0.00043     0.00014     0.00013
          15    -0.00060     0.00018    -0.00234
          16     0.00444    -0.00111     0.00213
          17     0.00511    -0.00136     0.00330
          18     0.00689    -0.00197     0.00638
          19     0.00000     0.00000    -0.00003
          20    -0.00001    -0.00000     0.00006
          21     0.00001    -0.00000    -0.00002
          22     0.00240     0.00060     0.00079
          23     0.00319     0.00063     0.00026
          24    -0.00295    -0.00054    -0.00033
          25    -0.02893    -0.00606    -0.00073
          26    -0.03758    -0.00769    -0.00160
          27     0.03181     0.00646     0.00137
          28    -0.00007    -0.00002    -0.00000
          29    -0.00002    -0.00001    -0.00002
          30    -0.00000    -0.00000    -0.00001
          31    -0.00232    -0.00208    -0.00023
          32     0.00004    -0.00038    -0.00002
          33     0.00312    -0.00300    -0.00009
          34     0.03027    -0.05594     0.00002
          35     0.00053    -0.00114     0.00000
          36    -0.02386     0.04206     0.00002
          37    -0.00778    -0.00245     0.00005
          38    -0.00542    -0.00179    -0.00000
          39    -0.04776    -0.01566    -0.00005
          40    -0.34581     0.61386    -0.00014
          41    -0.00686     0.01217    -0.00005
          42     0.27083    -0.47981    -0.00007
          43    -0.00282     0.00700     0.00000
          44     0.00027     0.00297    -0.00000
          45     0.00645     0.03434    -0.00003
          46    -0.00520    -0.05224     0.00007
          47    -0.00506    -0.03030     0.00004
          48    -0.06387    -0.36648     0.00030
          49     0.03397     0.02544     0.00001
          50     0.00375     0.00262     0.00000
          51     0.01562     0.00923     0.00001
          52    -0.37695    -0.26593     0.00013
          53    -0.04011    -0.02798     0.00003
          54    -0.15079    -0.10385     0.00005
          55     0.03598     0.01521    -0.00003
          56     0.00034     0.00008     0.00000
          57    -0.02865    -0.01312     0.00002
          58    -0.38554    -0.16458     0.00027
          59    -0.00286    -0.00110     0.00000
          60     0.31057     0.13373    -0.00021
          61     0.07026     0.02218    -0.00008
          62     0.06109     0.01942    -0.00000
          63     0.53157     0.17009     0.00028



 ----------------------------------------------------------------------------
 Normal Eigenvalue ||    Projected Derivative Dipole Moments (debye/angs)
  Mode   [cm**-1]  ||      [d/dqX]             [d/dqY]           [d/dqZ]
 ------ ---------- || ------------------ ------------------ -----------------
    1       -0.000 ||       0.010               0.005            -0.003
    2       -0.000 ||      -0.004               0.003             0.002
    3       -0.000 ||       0.013              -0.008            -0.007
    4       -0.000 ||       0.001               0.017             0.003
    5        0.000 ||      -0.004              -0.012            -0.001
    6        0.000 ||       0.003               0.008             0.001
    7       41.035 ||       0.012               0.104            -0.026
    8       64.387 ||      -0.027               0.026            -0.084
    9      107.718 ||       0.020              -0.117            -0.224
   10      137.591 ||       0.027               0.050             0.046
   11      188.261 ||      -0.311              -0.175             0.106
   12      213.877 ||      -0.294               0.031            -0.066
   13      269.526 ||      -0.259              -0.096            -0.015
   14      293.797 ||      -0.049              -0.109            -0.254
   15      366.887 ||      -0.162               0.505            -0.244
   16      390.658 ||      -0.185              -0.045             0.469
   17      424.940 ||       0.004              -0.033            -0.022
   18      462.327 ||       0.720              -0.931             0.045
   19      486.997 ||      -0.162              -0.285            -0.450
   20      545.423 ||       0.258              -0.798            -0.116
   21      636.246 ||       0.079              -0.050            -0.103
   22      690.579 ||      -0.663              -0.149            -0.370
   23      705.577 ||       0.027               1.139             0.254
   24      709.156 ||       0.079              -1.460            -0.497
   25      728.238 ||      -0.024               1.513             0.020
   26      764.365 ||       0.277              -0.764             0.901
   27      804.848 ||      -0.058               1.427             0.064
   28      872.262 ||       0.199               0.506            -0.044
   29      882.614 ||       0.048              -0.013            -0.031
   30      929.573 ||       0.460               0.036             0.750
   31      964.584 ||       0.032               0.421            -0.001
   32     1015.635 ||      -0.224               0.356            -0.470
   33     1023.028 ||       0.087              -0.114            -0.053
   34     1027.461 ||       0.145              -0.067             0.162
   35     1041.913 ||       0.257              -0.331            -0.212
   36     1047.612 ||      -0.004              -0.204            -0.029
   37     1072.987 ||       0.249               0.300             0.262
   38     1096.100 ||      -0.271               0.150            -0.649
   39     1127.425 ||      -0.183               0.106            -0.175
   40     1188.132 ||       1.130              -0.618            -0.996
   41     1216.303 ||      -0.655               0.408            -0.150
   42     1222.425 ||      -1.483               0.845            -0.443
   43     1243.015 ||       0.005               0.097            -0.269
   44     1269.398 ||       1.581              -0.052             0.304
   45     1273.240 ||      -0.025               0.101            -0.206
   46     1291.436 ||       0.315               0.049             0.345
   47     1348.101 ||      -0.185              -0.221             0.503
   48     1378.234 ||      -0.077               0.128             0.009
   49     1409.315 ||       0.896               0.087             0.248
   50     1426.952 ||       1.478               0.065             0.579
   51     1471.076 ||       0.960              -0.242             1.161
   52     1508.622 ||      -0.092              -0.027            -0.199
   53     1554.618 ||       1.668               0.185             0.709
   54     1670.076 ||      -0.306               0.019             0.284
   55     1689.844 ||      -1.144              -0.124            -0.585
   56     3229.886 ||       0.114               0.011             0.103
   57     3238.893 ||       0.237               0.046            -0.240
   58     3241.016 ||      -0.246               0.075             0.381
   59     3245.779 ||      -0.027              -0.053             0.053
   60     3255.062 ||      -0.551              -0.048            -0.581
   61     3266.049 ||       0.381               0.024            -0.215
   62     3274.981 ||       0.309               0.065             0.171
   63     3740.607 ||       1.579               0.207            -0.415
 ----------------------------------------------------------------------------



  
  
 ----------------------------------------------------------------------------
 Normal Eigenvalue ||           Projected Infra Red Intensities
  Mode   [cm**-1]  || [atomic units] [(debye/angs)**2] [(KM/mol)] [arbitrary]
 ------ ---------- || -------------- ----------------- ---------- -----------
    1       -0.000 ||    0.000006           0.000         0.006       0.002
    2       -0.000 ||    0.000001           0.000         0.001       0.000
    3       -0.000 ||    0.000011           0.000         0.011       0.004
    4       -0.000 ||    0.000013           0.000         0.012       0.005
    5        0.000 ||    0.000007           0.000         0.007       0.003
    6        0.000 ||    0.000003           0.000         0.003       0.001
    7       41.035 ||    0.000507           0.012         0.495       0.179
    8       64.387 ||    0.000366           0.008         0.356       0.129
    9      107.718 ||    0.002791           0.064         2.721       0.987
   10      137.591 ||    0.000233           0.005         0.227       0.082
   11      188.261 ||    0.005994           0.138         5.843       2.119
   12      213.877 ||    0.003974           0.092         3.874       1.405
   13      269.526 ||    0.003314           0.076         3.231       1.172
   14      293.797 ||    0.003417           0.079         3.331       1.208
   15      366.887 ||    0.014758           0.340        14.387       5.217
   16      390.658 ||    0.011116           0.256        10.837       3.930
   17      424.940 ||    0.000068           0.002         0.067       0.024
   18      462.327 ||    0.060094           1.386        58.582      21.245
   19      486.997 ||    0.013453           0.310        13.115       4.756
   20      545.423 ||    0.031044           0.716        30.264      10.975
   21      636.246 ||    0.000841           0.019         0.820       0.297
   22      690.579 ||    0.025967           0.599        25.314       9.180
   23      705.577 ||    0.059010           1.361        57.526      20.862
   24      709.156 ||    0.103409           2.386       100.808      36.558
   25      728.238 ||    0.099261           2.290        96.765      35.091
   26      764.365 ||    0.063831           1.473        62.226      22.566
   27      804.848 ||    0.088650           2.045        86.421      31.340
   28      872.262 ||    0.012909           0.298        12.585       4.564
   29      882.614 ||    0.000148           0.003         0.144       0.052
   30      929.573 ||    0.033581           0.775        32.737      11.872
   31      964.584 ||    0.007724           0.178         7.529       2.731
   32     1015.635 ||    0.017231           0.398        16.798       6.092
   33     1023.028 ||    0.001022           0.024         0.996       0.361
   34     1027.461 ||    0.002245           0.052         2.188       0.794
   35     1041.913 ||    0.009577           0.221         9.336       3.386
   36     1047.612 ||    0.001847           0.043         1.801       0.653
   37     1072.987 ||    0.009569           0.221         9.329       3.383
   38     1096.100 ||    0.022431           0.518        21.867       7.930
   39     1127.425 ||    0.003261           0.075         3.179       1.153
   40     1188.132 ||    0.114872           2.650       111.983      40.610
   41     1216.303 ||    0.026761           0.617        26.088       9.461
   42     1222.425 ||    0.134789           3.110       131.399      47.651
   43     1243.015 ||    0.003547           0.082         3.457       1.254
   44     1269.398 ||    0.112455           2.594       109.627      39.756
   45     1273.240 ||    0.002314           0.053         2.256       0.818
   46     1291.436 ||    0.009554           0.220         9.314       3.378
   47     1348.101 ||    0.014567           0.336        14.200       5.150
   48     1378.234 ||    0.000967           0.022         0.943       0.342
   49     1409.315 ||    0.037752           0.871        36.803      13.346
   50     1426.952 ||    0.109387           2.524       106.635      38.671
   51     1471.076 ||    0.100913           2.328        98.375      35.676
   52     1508.622 ||    0.002112           0.049         2.059       0.747
   53     1554.618 ||    0.143970           3.322       140.349      50.897
   54     1670.076 ||    0.007575           0.175         7.384       2.678
   55     1689.844 ||    0.072179           1.665        70.364      25.517
   56     3229.886 ||    0.001022           0.024         0.997       0.361
   57     3238.893 ||    0.005030           0.116         4.903       1.778
   58     3241.016 ||    0.009164           0.211         8.934       3.240
   59     3245.779 ||    0.000273           0.006         0.266       0.096
   60     3255.062 ||    0.027871           0.643        27.170       9.853
   61     3266.049 ||    0.008301           0.192         8.093       2.935
   62     3274.981 ||    0.005584           0.129         5.443       1.974
   63     3740.607 ||    0.117404           2.709       114.451      41.505
 ----------------------------------------------------------------------------



 vib:animation  F

 Task  times  cpu:      995.1s     wall:      997.0s


                                NWChem Input Module
                                -------------------


 Summary of allocated global arrays
-----------------------------------
  No active global arrays



                         GA Statistics for process    0
                         ------------------------------

       create   destroy   get      put      acc     scatter   gather  read&inc
calls: 3.31e+04 3.31e+04 7.31e+05 4.97e+04 1.78e+06 2902        0     1.23e+04 
number of processes/call 3.67e+00 9.13e+00 3.51e+00 2.70e+00 0.00e+00
bytes total:             1.99e+09 1.18e+08 1.69e+09 1.69e+06 0.00e+00 9.84e+04
bytes remote:            1.76e+09 1.02e+08 1.48e+09 -1.18e+06 0.00e+00 0.00e+00
Max memory consumed for GA by this process: 17642072 bytes

MA_summarize_allocated_blocks: starting scan ...
MA_summarize_allocated_blocks: scan completed: 0 heap blocks, 0 stack blocks
MA usage statistics:

	allocation statistics:
					      heap	     stack
					      ----	     -----
	current number of blocks	         0	         0
	maximum number of blocks	        47	        57
	current total bytes		         0	         0
	maximum total bytes		    232232	  68440312
	maximum total K-bytes		       233	     68441
	maximum total M-bytes		         1	        69


                                     CITATION
                                     --------
                Please cite the following reference when publishing
                           results obtained with NWChem:

                 M. Valiev, E.J. Bylaska, N. Govind, K. Kowalski,
              T.P. Straatsma, H.J.J. van Dam, D. Wang, J. Nieplocha,
                        E. Apra, T.L. Windus, W.A. de Jong
                 "NWChem: a comprehensive and scalable open-source
                  solution for large scale molecular simulations"
                      Comput. Phys. Commun. 181, 1477 (2010)
                           doi:10.1016/j.cpc.2010.04.018

                              AUTHORS & CONTRIBUTORS
                              ----------------------
          E. Apra, E. J. Bylaska, W. A. de Jong, N. Govind, K. Kowalski,
       T. P. Straatsma, M. Valiev, H. J. J. van Dam, D. Wang, T. L. Windus,
        J. Hammond, J. Autschbach, K. Bhaskaran-Nair, J. Brabec, K. Lopata,
     F. Aquino, S. Hirata, M. T. Hackler, J. Mullin, P. Nichols, R. Peverati,
    J. Pittner, Y. Zhao, P.-D. Fan, R. J. Harrison, M. Dupuis, D. Silverstein,
    D. M. A. Smith, J. Nieplocha, V. Tipparaju, M. Krishnan, B. E. Van Kuiken,
        A. Vazquez-Mayagoitia, L. Jensen, M. Swart, Q. Wu, T. Van Voorhis,
     A. A. Auer, M. Nooijen, L. D. Crosby, E. Brown, G. Cisneros, G. I. Fann,
     H. Fruchtl, J. Garza, K. Hirao, R. Kendall, J. A. Nichols, K. Tsemekhman,
      K. Wolinski, J. Anchell, D. Bernholdt, P. Borowski, T. Clark, D. Clerc,
      H. Dachsel, M. Deegan, K. Dyall, D. Elwood, E. Glendening, M. Gutowski,
      A. Hess, J. Jaffe, B. Johnson, J. Ju, R. Kobayashi, R. Kutteh, Z. Lin,
   R. Littlefield, X. Long, B. Meng, T. Nakajima, S. Niu, L. Pollack, M. Rosing,
   K. Glaesemann, G. Sandrone, M. Stave, H. Taylor, G. Thomas, J. H. van Lenthe,
                                A. Wong, Z. Zhang.

 Total times  cpu:     2878.0s     wall:     2908.3s
Application 8612286 resources: utime ~743672s, stime ~1281s, Rss ~128356, inblocks ~64584062, outblocks ~3155972
