 Entering Gaussian System, Link 0=g09
 Initial command:
 /fimm/apps/gaussian/g09/l1.exe /work/marco/9408523/Mol_000139_2D_DFT/Gau-25567.inp -scrdir=/work/marco/9408523/Mol_000139_2D_DFT/
 Entering Link 1 = /fimm/apps/gaussian/g09/l1.exe PID=     25568.
  
 Copyright (c) 1988,1990,1992,1993,1995,1998,2003,2009,2010,
            Gaussian, Inc.  All Rights Reserved.
  
 This is part of the Gaussian(R) 09 program.  It is based on
 the Gaussian(R) 03 system (copyright 2003, Gaussian, Inc.),
 the Gaussian(R) 98 system (copyright 1998, Gaussian, Inc.),
 the Gaussian(R) 94 system (copyright 1995, Gaussian, Inc.),
 the Gaussian 92(TM) system (copyright 1992, Gaussian, Inc.),
 the Gaussian 90(TM) system (copyright 1990, Gaussian, Inc.),
 the Gaussian 88(TM) system (copyright 1988, Gaussian, Inc.),
 the Gaussian 86(TM) system (copyright 1986, Carnegie Mellon
 University), and the Gaussian 82(TM) system (copyright 1983,
 Carnegie Mellon University). Gaussian is a federally registered
 trademark of Gaussian, Inc.
  
 This software contains proprietary and confidential information,
 including trade secrets, belonging to Gaussian, Inc.
  
 This software is provided under written license and may be
 used, copied, transmitted, or stored only in accord with that
 written license.
  
 The following legend is applicable only to US Government
 contracts under FAR:
  
                    RESTRICTED RIGHTS LEGEND
  
 Use, reproduction and disclosure by the US Government is
 subject to restrictions as set forth in subparagraphs (a)
 and (c) of the Commercial Computer Software - Restricted
 Rights clause in FAR 52.227-19.
  
 Gaussian, Inc.
 340 Quinnipiac St., Bldg. 40, Wallingford CT 06492
  
  
 ---------------------------------------------------------------
 Warning -- This program may not be used in any manner that
 competes with the business of Gaussian, Inc. or will provide
 assistance to any competitor of Gaussian, Inc.  The licensee
 of this program is prohibited from giving any competitor of
 Gaussian, Inc. access to this program.  By using this program,
 the user acknowledges that Gaussian, Inc. is engaged in the
 business of creating and licensing software in the field of
 computational chemistry and represents and warrants to the
 licensee that it is not a competitor of Gaussian, Inc. and that
 it will not use this program in any manner prohibited above.
 ---------------------------------------------------------------
  

 Cite this work as:
 Gaussian 09, Revision B.01,
 M. J. Frisch, G. W. Trucks, H. B. Schlegel, G. E. Scuseria, 
 M. A. Robb, J. R. Cheeseman, G. Scalmani, V. Barone, B. Mennucci, 
 G. A. Petersson, H. Nakatsuji, M. Caricato, X. Li, H. P. Hratchian, 
 A. F. Izmaylov, J. Bloino, G. Zheng, J. L. Sonnenberg, M. Hada, 
 M. Ehara, K. Toyota, R. Fukuda, J. Hasegawa, M. Ishida, T. Nakajima, 
 Y. Honda, O. Kitao, H. Nakai, T. Vreven, J. A. Montgomery, Jr., 
 J. E. Peralta, F. Ogliaro, M. Bearpark, J. J. Heyd, E. Brothers, 
 K. N. Kudin, V. N. Staroverov, T. Keith, R. Kobayashi, J. Normand, 
 K. Raghavachari, A. Rendell, J. C. Burant, S. S. Iyengar, J. Tomasi, 
 M. Cossi, N. Rega, J. M. Millam, M. Klene, J. E. Knox, J. B. Cross, 
 V. Bakken, C. Adamo, J. Jaramillo, R. Gomperts, R. E. Stratmann, 
 O. Yazyev, A. J. Austin, R. Cammi, C. Pomelli, J. W. Ochterski, 
 R. L. Martin, K. Morokuma, V. G. Zakrzewski, G. A. Voth, 
 P. Salvador, J. J. Dannenberg, S. Dapprich, A. D. Daniels, 
 O. Farkas, J. B. Foresman, J. V. Ortiz, J. Cioslowski, 
 and D. J. Fox, Gaussian, Inc., Wallingford CT, 2010.
 
 ******************************************
 Gaussian 09:  EM64L-G09RevB.01 12-Aug-2010
                14-Nov-2014 
 ******************************************
 %NPROCSHARED=12
 Will use up to   12 processors via shared memory.
 %LINDAWORKERS=compute-7-2
 SetLPE:  input flags="-v -nodelist "compute-7-2 " "
 SetLPE:    new flags="-v -nodelist "compute-7-2 "  -nodelist 'compute-7-2.local'"
 Will use up to    1 processors via Linda.
 %CHK=Mol_000139_2D_DFT
 %MEM=28GB
 ----------------------------------------------------------------------
 #P # HF/LANL2MB 5D 7F # NOSYM # SCF=(VSHIFT=1000,NOSYM,NOVARACC,MAXCYC
 LE=180,CONVER=5) # SP
 ----------------------------------------------------------------------
 1/38=1/1;
 2/12=2,15=1,17=6,18=5,40=1/2;
 3/5=6,6=2,8=11,11=9,16=1,25=1,30=1/1,2,3;
 4/9=2/1;
 5/5=2,6=5,7=180,10=1000,38=1/2;
 6/7=2,8=2,9=2,10=2,28=1/1;
 99/5=1,9=1/99;
 Leave Link    1 at Fri Nov 14 21:48:22 2014, MaxMem= 3758096384 cpu:       1.1
 (Enter /fimm/apps/gaussian/g09/l101.exe)
 ------------------------------------------
 STEP 1 - PROTOCOL DENOPTIM_1.0, 6 NOV 2014
 ------------------------------------------
 Symbolic Z-matrix:
 Charge =  0 Multiplicity = 1
 Ru                   -0.0257   -0.0018    0.0046 
 C                     0.1968    0.0156    1.8119 
 Cl                    2.1421   -0.0503   -1.0223 
 Cl                   -2.3037   -0.7946   -0.1209 
 H                     0.0524    0.8783    2.4783 
 H                     0.4352   -0.9491    2.3025 
 C                    -0.1803    2.0148   -0.2257 
 N                     0.7152    2.9181    0.2466 
 N                    -1.1094    2.7016   -0.9255 
 C                     0.2254    4.2888    0.0904 
 C                     1.7767    2.6752    1.2559 
 C                    -0.7429    4.1494   -1.0816 
 H                     1.0369    4.9758   -0.145 
 H                    -0.2861    4.6315    0.9887 
 C                     0.007     4.3432   -2.4133 
 C                    -1.9031    5.1377   -0.9809 
 C                     0.4677    5.7909   -2.6214 
 H                     0.8756    3.6864   -2.4323 
 H                    -0.6468    4.0562   -3.2354 
 C                    -0.6658    6.7842   -2.4297 
 H                     1.2646    6.0175   -1.9146 
 H                     0.871     5.8976   -3.6272 
 C                    -1.3844    6.5714   -1.1043 
 H                    -1.3792    6.6774   -3.2456 
 H                    -0.266     7.7965   -2.4639 
 H                    -2.2194    7.2664   -1.0288 
 H                    -0.6993    6.7794   -0.2837 
 H                    -2.4089    5.0127   -0.0245 
 H                    -2.6227    4.9392   -1.7738 
 C                     1.4915    2.8374    2.6303 
 C                     3.0857    2.4166    0.8314 
 C                     2.5414    2.6484    3.5385 
 C                     3.8261    2.311     3.1331 
 H                     2.3437    2.7705    4.6024 
 C                     4.079     2.2246    1.7857 
 H                     5.091     1.9988    1.453 
 C                    -2.3292    2.0571   -1.4985 
 C                    -2.2514    1.3779   -2.7351 
 C                    -3.5672    2.2445   -0.8717 
 C                    -3.4347    0.8372   -3.255 
 C                    -4.6548    0.9465   -2.6008 
 H                    -3.3974    0.3113   -4.2079 
 C                    -4.7017    1.6684   -1.4331 
 H                    -5.6592    1.7947   -0.9299 
 H                    -3.7017    2.9384    0.1925 
 H                    -5.7046    0.3657   -3.037 
 F                     0.2082    3.2422    3.1004 
 H                     3.411     2.3634   -0.4028 
 H                     4.7479    2.0464    3.9757 
 F                    -1.0398    1.2871   -3.4805 
 
 NAtoms=     50 NQM=     50 NQMF=      0 NMic=      0 NMicF=      0 NTot=     50.
                    Isotopes and Nuclear Properties:
 (Nuclear quadrupole moments (NQMom) in fm**2, nuclear magnetic moments (NMagM)
  in nuclear magnetons)

  Atom         1           2           3           4           5           6           7           8           9          10
 IAtWgt=         102          12          35          35           1           1          12          14          14          12
 AtmWgt= 101.9037000  12.0000000  34.9688527  34.9688527   1.0078250   1.0078250  12.0000000  14.0030740  14.0030740  12.0000000
 NucSpn=           0           0           3           3           1           1           0           2           2           0
 AtZEff=   0.0000000   0.0000000   0.0000000   0.0000000   0.0000000   0.0000000   0.0000000   0.0000000   0.0000000   0.0000000
 NQMom=    0.0000000   0.0000000  -8.1650000  -8.1650000   0.0000000   0.0000000   0.0000000   2.0440000   2.0440000   0.0000000
 NMagM=    0.0000000   0.0000000   0.8218740   0.8218740   2.7928460   2.7928460   0.0000000   0.4037610   0.4037610   0.0000000

  Atom        11          12          13          14          15          16          17          18          19          20
 IAtWgt=          12          12           1           1          12          12          12           1           1          12
 AtmWgt=  12.0000000  12.0000000   1.0078250   1.0078250  12.0000000  12.0000000  12.0000000   1.0078250   1.0078250  12.0000000
 NucSpn=           0           0           1           1           0           0           0           1           1           0
 AtZEff=   0.0000000   0.0000000   0.0000000   0.0000000   0.0000000   0.0000000   0.0000000   0.0000000   0.0000000   0.0000000
 NQMom=    0.0000000   0.0000000   0.0000000   0.0000000   0.0000000   0.0000000   0.0000000   0.0000000   0.0000000   0.0000000
 NMagM=    0.0000000   0.0000000   2.7928460   2.7928460   0.0000000   0.0000000   0.0000000   2.7928460   2.7928460   0.0000000

  Atom        21          22          23          24          25          26          27          28          29          30
 IAtWgt=           1           1          12           1           1           1           1           1           1          12
 AtmWgt=   1.0078250   1.0078250  12.0000000   1.0078250   1.0078250   1.0078250   1.0078250   1.0078250   1.0078250  12.0000000
 NucSpn=           1           1           0           1           1           1           1           1           1           0
 AtZEff=   0.0000000   0.0000000   0.0000000   0.0000000   0.0000000   0.0000000   0.0000000   0.0000000   0.0000000   0.0000000
 NQMom=    0.0000000   0.0000000   0.0000000   0.0000000   0.0000000   0.0000000   0.0000000   0.0000000   0.0000000   0.0000000
 NMagM=    2.7928460   2.7928460   0.0000000   2.7928460   2.7928460   2.7928460   2.7928460   2.7928460   2.7928460   0.0000000

  Atom        31          32          33          34          35          36          37          38          39          40
 IAtWgt=          12          12          12           1          12           1          12          12          12          12
 AtmWgt=  12.0000000  12.0000000  12.0000000   1.0078250  12.0000000   1.0078250  12.0000000  12.0000000  12.0000000  12.0000000
 NucSpn=           0           0           0           1           0           1           0           0           0           0
 AtZEff=   0.0000000   0.0000000   0.0000000   0.0000000   0.0000000   0.0000000   0.0000000   0.0000000   0.0000000   0.0000000
 NQMom=    0.0000000   0.0000000   0.0000000   0.0000000   0.0000000   0.0000000   0.0000000   0.0000000   0.0000000   0.0000000
 NMagM=    0.0000000   0.0000000   0.0000000   2.7928460   0.0000000   2.7928460   0.0000000   0.0000000   0.0000000   0.0000000

  Atom        41          42          43          44          45          46          47          48          49          50
 IAtWgt=          12           1          12           1           1           1          19           1           1          19
 AtmWgt=  12.0000000   1.0078250  12.0000000   1.0078250   1.0078250   1.0078250  18.9984033   1.0078250   1.0078250  18.9984033
 NucSpn=           0           1           0           1           1           1           1           1           1           1
 AtZEff=   0.0000000   0.0000000   0.0000000   0.0000000   0.0000000   0.0000000   0.0000000   0.0000000   0.0000000   0.0000000
 NQMom=    0.0000000   0.0000000   0.0000000   0.0000000   0.0000000   0.0000000   0.0000000   0.0000000   0.0000000   0.0000000
 NMagM=    0.0000000   2.7928460   0.0000000   2.7928460   2.7928460   2.7928460   2.6288670   2.7928460   2.7928460   2.6288670
 Leave Link  101 at Fri Nov 14 21:48:22 2014, MaxMem= 3758096384 cpu:       1.0
 (Enter /fimm/apps/gaussian/g09/l202.exe)
                          Input orientation:                          
 ---------------------------------------------------------------------
 Center     Atomic      Atomic             Coordinates (Angstroms)
 Number     Number       Type             X           Y           Z
 ---------------------------------------------------------------------
      1         44           0       -0.025700   -0.001800    0.004600
      2          6           0        0.196800    0.015600    1.811900
      3         17           0        2.142100   -0.050300   -1.022300
      4         17           0       -2.303700   -0.794600   -0.120900
      5          1           0        0.052400    0.878300    2.478300
      6          1           0        0.435200   -0.949100    2.302500
      7          6           0       -0.180300    2.014800   -0.225700
      8          7           0        0.715200    2.918100    0.246600
      9          7           0       -1.109400    2.701600   -0.925500
     10          6           0        0.225400    4.288800    0.090400
     11          6           0        1.776700    2.675200    1.255900
     12          6           0       -0.742900    4.149400   -1.081600
     13          1           0        1.036900    4.975800   -0.145000
     14          1           0       -0.286100    4.631500    0.988700
     15          6           0        0.007000    4.343200   -2.413300
     16          6           0       -1.903100    5.137700   -0.980900
     17          6           0        0.467700    5.790900   -2.621400
     18          1           0        0.875600    3.686400   -2.432300
     19          1           0       -0.646800    4.056200   -3.235400
     20          6           0       -0.665800    6.784200   -2.429700
     21          1           0        1.264600    6.017500   -1.914600
     22          1           0        0.871000    5.897600   -3.627200
     23          6           0       -1.384400    6.571400   -1.104300
     24          1           0       -1.379200    6.677400   -3.245600
     25          1           0       -0.266000    7.796500   -2.463900
     26          1           0       -2.219400    7.266400   -1.028800
     27          1           0       -0.699300    6.779400   -0.283700
     28          1           0       -2.408900    5.012700   -0.024500
     29          1           0       -2.622700    4.939200   -1.773800
     30          6           0        1.491500    2.837400    2.630300
     31          6           0        3.085700    2.416600    0.831400
     32          6           0        2.541400    2.648400    3.538500
     33          6           0        3.826100    2.311000    3.133100
     34          1           0        2.343700    2.770500    4.602400
     35          6           0        4.079000    2.224600    1.785700
     36          1           0        5.091000    1.998800    1.453000
     37          6           0       -2.329200    2.057100   -1.498500
     38          6           0       -2.251400    1.377900   -2.735100
     39          6           0       -3.567200    2.244500   -0.871700
     40          6           0       -3.434700    0.837200   -3.255000
     41          6           0       -4.654800    0.946500   -2.600800
     42          1           0       -3.397400    0.311300   -4.207900
     43          6           0       -4.701700    1.668400   -1.433100
     44          1           0       -5.659200    1.794700   -0.929900
     45          1           0       -3.701700    2.938400    0.192500
     46          1           0       -5.704600    0.365700   -3.037000
     47          9           0        0.208200    3.242200    3.100400
     48          1           0        3.411000    2.363400   -0.402800
     49          1           0        4.747900    2.046400    3.975700
     50          9           0       -1.039800    1.287100   -3.480500
 ---------------------------------------------------------------------
                    Distance matrix (angstroms):
                    1          2          3          4          5
     1  Ru   0.000000
     2  C    1.821028   0.000000
     3  Cl   2.399215   3.438201   0.000000
     4  Cl   2.415278   3.262612   4.596917   0.000000
     5  H    2.626760   1.099632   4.181309   3.886598   0.000000
     6  H    2.527875   1.108228   3.843910   3.660370   1.875322
     7  C    2.035587   2.879378   3.208232   3.523143   2.942346
     8  N    3.022137   3.338174   3.529525   4.799266   3.095250
     9  N    3.057428   4.051433   4.260819   3.781157   4.032376
    10  C    4.298798   4.607018   4.872333   5.681721   4.166954
    11  C    3.461319   3.143039   3.571003   5.530348   2.774225
    12  C    4.350479   5.132610   5.095510   5.272777   4.899539
    13  H    5.091955   5.398038   5.220422   6.667661   4.963915
    14  H    4.743810   4.713532   5.644424   5.894445   4.052160
    15  C    4.972558   6.051154   5.079013   6.082057   5.994610
    16  C    5.559703   6.200421   6.578807   6.007684   5.825164
    17  C    6.379239   7.285714   6.283339   7.569806   7.093169
    18  H    4.511501   5.652325   4.189875   5.960695   5.716387
    19  H    5.229792   6.520226   5.434990   5.997974   6.575279
    20  C    7.237772   8.034251   7.521667   8.090209   7.712583
    21  H    6.448269   7.144914   6.195515   7.896508   6.868652
    22  H    6.985482   8.039669   6.616548   8.195023   7.946107
    23  C    6.803138   7.347308   7.502655   7.488000   6.878285
    24  H    7.550329   8.511267   7.912305   8.151640   8.272972
    25  H    8.183197   8.890391   8.333632   9.135035   8.508126
    26  H    7.662047   8.153631   8.518029   8.112405   7.633390
    27  H    6.820669   7.137473   7.433968   7.743777   6.558710
    28  H    5.552090   5.927314   6.880492   5.809053   5.423585
    29  H    5.858378   6.711830   6.939970   5.975810   6.459677
    30  C    4.154185   3.210698   4.701444   5.929930   2.435608
    31  C    4.026545   3.882258   3.226791   6.345417   3.778830
    32  C    5.109013   3.925549   5.314444   6.980004   3.233017
    33  C    5.474753   4.492911   5.067439   7.603139   4.089279
    34  H    5.868515   4.470519   6.295618   7.524482   3.652708
    35  C    4.997773   4.466749   4.100197   7.313655   4.301828
    36  H    5.681627   5.292928   4.361414   8.059890   5.262533
    37  C    3.435766   4.637580   4.965926   3.167116   4.782941
    38  C    3.789890   5.340857   4.927097   3.399490   5.721594
    39  C    4.284389   5.131998   6.155071   3.375835   5.117666
    40  C    4.790636   6.287789   6.072339   3.710056   6.710610
    41  C    5.395920   6.623935   7.048626   3.835232   6.925290
    42  H    5.404771   7.017386   6.400380   4.372958   7.545057
    43  C    5.169287   6.103857   7.068259   3.679489   6.206833
    44  H    5.986403   6.706370   8.017035   4.314897   6.714015
    45  H    4.710951   5.134542   6.675183   3.998489   4.854087
    46  H    6.452619   7.645974   8.111891   4.627748   7.989014
    47  F    4.490236   3.474379   5.619358   5.743010   2.449348
    48  H    4.191784   4.555013   2.796397   6.535306   4.667596
    49  H    6.538503   5.433111   6.013846   8.635883   5.065016
    50  F    3.851699   5.581701   4.237437   4.149437   6.071846
                    6          7          8          9         10
     6  H    0.000000
     7  C    3.944026   0.000000
     8  N    4.388663   1.356812   0.000000
     9  N    5.112082   1.350793   2.179416   0.000000
    10  C    5.689727   2.331435   1.463940   2.309318   0.000000
    11  C    4.003816   2.541872   1.484745   3.617841   2.523614
    12  C    6.231754   2.367615   2.325139   1.501604   1.526637
    13  H    6.438691   3.202438   2.119191   3.223006   1.088997
    14  H    5.778360   2.886707   2.118739   2.840158   1.089045
    15  C    7.101448   3.200331   3.099601   2.480877   2.513796
    16  C    7.300513   3.645665   3.645391   2.562735   2.529590
    17  C    8.347062   4.518652   4.066898   3.860971   3.109481
    18  H    6.640794   2.962812   2.791508   2.679646   2.673885
    19  H    7.542684   3.666501   3.908278   2.717458   3.446126
    20  C    9.132899   5.276410   4.900660   4.373445   3.656797
    21  H    8.185680   4.578398   3.818233   4.196354   2.844005
    22  H    9.067997   5.267976   4.889583   4.629858   4.101900
    23  C    8.454298   4.794205   4.424913   3.883677   3.037931
    24  H    9.604008   5.683045   5.542049   4.611143   4.405570
    25  H    9.984777   6.200398   5.666423   5.388507   4.366908
    26  H    9.254129   5.690536   5.398725   4.698954   4.011952
    27  H    8.228319   4.793134   4.146283   4.148318   2.682929
    28  H    7.003349   3.740928   3.771054   2.800301   2.734368
    29  H    7.787108   4.112669   4.394137   2.831350   3.465535
    30  C    3.944719   3.410033   2.508222   4.407588   3.187580
    31  C    4.529594   3.456249   2.492542   4.557059   3.497932
    32  C    4.348078   4.688102   3.774169   5.767015   4.465889
    33  C    4.776646   5.236460   4.286975   6.401872   5.112216
    34  H    4.771513   5.500201   4.652611   6.518154   5.210621
    35  C    4.859705   4.715017   3.763631   5.873468   4.688837
    36  H    5.575683   5.532169   4.631214   6.678035   5.547508
    37  C    5.579135   2.497915   3.613180   1.493861   3.745807
    38  C    6.165238   3.315446   4.479226   2.516147   4.753033
    39  C    6.024436   3.455600   4.476972   2.500523   4.414591
    40  C    7.003770   4.599404   5.814896   3.782800   6.041653
    41  C    7.317360   5.177211   6.389976   4.296146   6.498452
    42  H    7.659160   5.395328   6.599353   4.660754   6.886259
    43  C    6.869771   4.692640   5.807405   3.772238   5.784796
    44  H    7.424187   5.528353   6.578689   4.639307   6.472253
    45  H    6.056294   3.664449   4.417278   2.833023   4.154049
    46  H    8.242336   6.414112   7.649223   5.570523   7.767641
    47  F    4.272607   3.566565   2.916550   4.270385   3.186811
    48  H    5.210249   3.612523   2.827853   4.563070   3.754791
    49  H    5.511080   6.476103   5.561359   7.665443   6.370002
    50  F    6.373328   3.444127   4.430740   2.921246   4.833452
                   11         12         13         14         15
    11  C    0.000000
    12  C    3.739727   0.000000
    13  H    2.793311   2.174361   0.000000
    14  H    2.855460   2.174219   1.775992   0.000000
    15  C    4.401942   1.540563   2.570226   3.426752   0.000000
    16  C    4.960656   1.527397   3.060807   2.598125   2.516244
    17  C    5.143396   2.555594   2.668508   3.865908   1.533423
    18  H    3.929036   2.158310   2.630648   3.734435   1.089134
    19  H    5.286992   2.157956   3.637455   4.278329   1.088886
    20  C    6.036003   2.960657   3.374811   4.057554   2.532076
    21  H    4.635222   2.865963   2.066028   3.571389   2.152566
    22  H    5.920204   3.484387   3.605961   4.924269   2.153186
    23  C    5.544680   2.505618   3.054323   3.057797   2.935021
    24  H    6.800060   3.388002   4.283305   4.828030   2.839501
    25  H    6.651109   3.929316   3.877008   4.683810   3.464444
    26  H    6.501368   3.449424   4.078166   3.840658   3.926677
    27  H    5.034422   2.748717   2.507310   2.530457   3.311967
    28  H    4.962114   2.153672   3.448104   2.382891   3.462827
    29  H    5.801681   2.153270   4.005871   3.631224   2.771191
    30  C    1.413019   4.526819   3.532946   3.012226   5.468919
    31  C    1.400198   4.617396   3.420591   4.037271   4.870140
    32  C    2.407436   5.863868   4.609608   4.292892   6.687261
    33  C    2.802956   6.482220   5.062286   5.185881   7.034054
    34  H    3.395531   6.613344   5.395265   4.841280   7.560000
    35  C    2.405060   5.931019   4.533329   5.048017   6.221033
    36  H    3.388355   6.714437   5.277486   6.004989   6.803789
    37  C    4.982688   2.658547   4.656329   4.121645   3.394251
    38  C    5.816929   3.562421   5.519639   5.321184   3.741247
    39  C    5.767968   3.413118   5.402391   4.463684   4.422214
    40  C    7.133383   4.789585   6.840710   6.505335   4.984556
    41  C    7.695891   5.279157   7.393352   6.749020   5.771058
    42  H    7.887487   5.617040   7.611027   7.439689   5.573755
    43  C    7.086186   4.685191   6.747564   5.843167   5.503381
    44  H    7.800360   5.453222   7.454745   6.371708   6.387578
    45  H    5.586856   3.441562   5.169065   3.894463   4.745325
    46  H    8.929313   6.538994   8.663978   7.985202   6.987981
    47  F    2.486737   4.383689   3.771569   2.575609   5.626151
    48  H    2.349349   4.572248   3.539413   4.555118   4.421418
    49  H    4.076853   7.755500   6.271609   6.398911   8.280745
    50  F    5.682691   3.746416   5.389318   5.632657   3.402125
                   16         17         18         19         20
    16  C    0.000000
    17  C    2.956113   0.000000
    18  H    3.454563   2.151990   0.000000
    19  H    2.798339   2.151346   1.760518   0.000000
    20  C    2.518113   1.519281   3.460099   2.844556   0.000000
    21  H    3.417626   1.089019   2.419372   3.040503   2.140000
    22  H    3.908450   1.088884   2.513407   2.418259   2.140519
    23  C    1.529632   2.518144   3.898001   3.378146   1.522615
    24  H    2.788192   2.141623   3.832970   2.721618   1.089054
    25  H    3.456675   2.141391   4.265814   3.837977   1.088927
    26  H    2.152604   3.454560   4.936116   4.200897   2.146791
    27  H    2.151837   2.793539   4.082088   4.016355   2.146267
    28  H    1.089110   3.952760   4.283049   3.785468   3.458554
    29  H    1.088998   3.315779   3.773756   2.611541   2.768337
    30  C    5.464015   6.111602   5.170111   6.361151   6.770138
    31  C    5.964641   5.491963   4.141095   5.758360   6.616982
    32  C    6.809932   7.219412   6.285124   7.617890   7.937908
    33  C    7.598616   7.516836   6.447546   7.975610   8.433945
    34  H    7.403525   8.051427   7.244391   8.486885   8.638131
    35  C    7.205952   6.721794   5.494557   7.134381   7.814901
    36  H    8.043258   7.235721   5.976048   7.690015   8.433040
    37  C    3.152708   4.798418   3.714478   3.137466   5.097010
    38  C    4.163487   5.184689   3.898588   3.162014   5.642294
    39  C    3.339425   5.649674   4.924736   4.171099   5.608419
    40  C    5.100160   6.337927   5.231965   4.258489   6.611712
    41  C    5.268974   7.050436   6.174202   5.112437   7.072492
    42  H    5.995048   6.890718   5.727354   4.747192   7.247211
    43  C    4.480255   6.717869   6.014732   5.039056   6.591897
    44  H    5.028572   7.507975   6.967018   5.962706   7.216547
    45  H    3.073882   5.782619   5.329236   4.725716   5.557229
    46  H    6.438240   8.228171   7.395387   6.264223   8.182632
    47  F    4.970666   6.269147   5.590483   6.444842   6.625077
    48  H    6.022508   5.033186   3.506772   5.230195   6.346030
    49  H    8.852108   8.709944   7.664644   9.227245   9.632448
    50  F    4.671232   4.826471   3.244090   2.807568   5.609114
                   21         22         23         24         25
    21  H    0.000000
    22  H    1.761334   0.000000
    23  C    2.824994   3.450487   0.000000
    24  H    3.032607   2.411868   2.143928   0.000000
    25  H    2.410251   2.500371   2.144808   1.761435   0.000000
    26  H    3.805608   4.263317   1.089013   2.442756   2.481187
    27  H    2.664063   3.797684   1.089041   3.040645   2.444486
    28  H    4.251671   4.951792   2.155253   3.769217   4.276942
    29  H    4.036540   4.069344   2.155387   2.594962   3.767550
    30  C    5.551634   6.993293   6.013385   7.583714   7.323411
    31  C    4.880922   6.074650   6.402429   7.396734   7.143964
    32  C    6.535851   8.043307   7.235843   8.810673   8.391259
    33  C    6.765996   8.203534   7.953356   9.319249   8.840950
    34  H    7.360622   8.926025   7.804614   9.524440   9.055595
    35  C    5.999930   7.285717   7.556157   8.656405   8.245253
    36  H    6.490918   7.669255   8.329421   9.264428   8.812087
    37  C    5.364075   5.433423   4.628925   5.030112   6.174909
    38  C    5.878891   5.565331   5.512136   5.395002   6.724120
    39  C    6.218477   6.374601   4.851884   5.483917   6.652648
    40  C    7.121489   6.654715   6.458350   6.191373   7.687545
    41  C    7.824654   7.490084   6.676416   6.632385   8.136511
    42  H    7.717136   7.054304   7.271407   6.747324   8.299122
    43  C    7.398868   7.331793   5.928912   6.278076   7.634893
    44  H    8.169497   8.170234   6.412581   6.893593   8.213487
    45  H    6.211672   6.652560   4.500029   5.585218   6.516259
    46  H    9.042808   8.613290   7.804497   7.654421   9.226245
    47  F    5.828250   7.262992   5.594591   7.388650   7.206105
    48  H    4.499447   5.416542   6.418351   7.045433   6.876557
    49  H    7.911931   9.363022   9.158992  10.542044   9.983551
    50  F    5.489899   4.992934   5.804214   5.406080   6.633591
                   26         27         28         29         30
    26  H    0.000000
    27  H    1.761547   0.000000
    28  H    2.474610   2.472073   0.000000
    29  H    2.476598   3.050607   1.763849   0.000000
    30  C    6.839286   5.369391   5.195480   6.382813   0.000000
    31  C    7.424621   5.882491   6.137013   6.762870   2.440202
    32  C    8.053035   6.494344   6.541434   7.754755   1.401013
    33  C    8.855816   7.219444   7.492986   8.518927   2.445457
    34  H    8.529092   7.014635   7.001633   8.368053   2.149395
    35  C    8.544647   6.918148   7.289936   8.059273   2.789987
    36  H    9.346063   7.706999   8.216757   8.863372   3.878877
    37  C    5.231585   5.141248   3.303725   2.910057   5.679226
    38  C    6.130817   6.131442   4.536952   3.707401   6.702757
    39  C    5.201992   5.397769   3.118066   2.994540   6.181099
    40  C    6.911406   7.184760   5.378029   4.436181   7.931267
    41  C    6.952949   7.418737   5.311814   4.555767   8.289567
    42  H    7.737427   8.032148   6.370332   5.286063   8.777443
    43  C    6.137009   6.592621   4.292485   3.890559   7.498900
    44  H    6.463862   7.061545   4.662588   4.452009   8.055728
    45  H    4.735015   4.898413   2.453801   3.005624   5.737804
    46  H    7.987437   8.588902   6.444486   5.657799   9.487436
    47  F    6.256015   4.978702   4.443971   5.886563   1.425383
    48  H    7.492175   6.034054   6.405711   6.702233   3.620615
    49  H   10.041747   8.379485   8.718963   9.785233   3.611083
    50  F    6.569195   6.364026   5.262933   4.330847   6.793584
                   31         32         33         34         35
    31  C    0.000000
    32  C    2.770990   0.000000
    33  C    2.420158   1.388756   0.000000
    34  H    3.859566   1.088980   2.137169   0.000000
    35  C    1.390754   2.369837   1.373648   3.353069   0.000000
    36  H    2.140601   3.357343   2.126071   4.249929   1.088953
    37  C    5.905829   7.031625   7.707393   7.717896   7.202712
    38  C    6.502573   7.996447   8.499556   8.768876   7.824864
    39  C    6.869589   7.545064   8.408551   8.073487   8.094847
    40  C    7.855494   9.227451   9.782593   9.943153   9.153645
    41  C    8.593982   9.611075  10.327881  10.207452   9.856682
    42  H    8.476875  10.036837  10.491331  10.799504   9.771413
    43  C    8.144407   8.839667   9.694663   9.342352   9.368603
    44  H    8.942159   9.377912  10.331769   9.777778  10.118885
    45  H    6.837344   7.089155   8.106080   7.484803   7.974151
    46  H    9.820391  10.790942  11.519052  11.354234  11.064934
    47  F    3.756326   2.447111   3.735961   2.653086   4.212723
    48  H    1.277458   4.046143   3.560568   5.133896   2.292383
    49  H    3.575833   2.328560   1.276598   2.587905   2.296798
    50  F    6.073549   7.996530   8.274362   8.887172   7.403640
                   36         37         38         39         40
    36  H    0.000000
    37  C    7.985870   0.000000
    38  C    8.475644   1.412992   0.000000
    39  C    8.968223   1.400229   2.440202   0.000000
    40  C    9.808269   2.407401   1.401018   2.770951   0.000000
    41  C   10.607603   2.803019   2.445501   2.420220   1.388729
    42  H   10.341488   3.395544   2.149440   3.859576   1.089027
    43  C   10.214485   2.405020   2.789904   1.390738   2.369705
    44  H   11.013023   3.388371   3.878862   2.140601   3.357275
    45  H    8.932149   2.349452   3.620687   1.277540   4.046182
    46  H   11.805596   4.076903   3.611133   3.575876   2.328579
    47  F    5.301104   5.384491   6.601387   5.570155   7.710114
    48  H    2.529689   5.851861   6.202710   6.994947   7.571522
    49  H    2.546370   8.947196   9.719667   9.626911  10.986361
    50  F    7.901433   2.486720   1.425426   3.756355   2.447204
                   41         42         43         44         45
    41  C    0.000000
    42  H    2.137125   0.000000
    43  C    1.373631   3.352974   0.000000
    44  H    2.126069   4.249882   1.089022   0.000000
    45  H    3.560701   5.133982   2.292482   2.529751   0.000000
    46  H    1.276589   2.587883   2.296809   2.546365   4.589125
    47  F    7.837263   8.660357   6.865609   7.263949   4.882161
    48  H    8.479147   8.064999   8.207341   9.103284   7.160692
    49  H   11.526964  11.675949  10.894629  11.508084   9.300753
    50  F    3.736055   2.653220   4.212689   5.301139   4.827363
                   46         47         48         49         50
    46  H    0.000000
    47  F    8.994617   0.000000
    48  H    9.696596   4.827280   0.000000
    49  H   12.698719   4.775454   4.589014   0.000000
    50  F    4.775566   6.977691   5.517271   9.469368   0.000000
 Symmetry turned off by external request.
 Stoichiometry    C21H22Cl2F2N2Ru
 Framework group  C1[X(C21H22Cl2F2N2Ru)]
 Deg. of freedom   144
 Full point group                 C1      NOp   1
 Rotational constants (GHZ):      0.1700341      0.1334388      0.0962950
 Leave Link  202 at Fri Nov 14 21:48:22 2014, MaxMem= 3758096384 cpu:       0.3
 (Enter /fimm/apps/gaussian/g09/l301.exe)
 Standard basis: LANL2MB (5D, 7F)
 Ernie: Thresh=  0.10000D-02 Tol=  0.10000D-05 Strict=F.
 Ernie:  1 primitive shells out of 246 were deleted.
 Integral buffers will be    131072 words long.
 Raffenetti 1 integral format.
 Two-electron integral symmetry is turned off.
   168 basis functions,   514 primitive gaussians,   169 cartesian basis functions
   105 alpha electrons      105 beta electrons
       nuclear repulsion energy      2894.2121935503 Hartrees.
 IExCor=    0 DFT=F Ex=HF Corr=None ExCW=0 ScaHFX=  1.000000
 ScaDFX=  1.000000  1.000000  1.000000  1.000000 ScalE2=  1.000000  1.000000
 IRadAn=      0 IRanWt=     -1 IRanGd=            0 ICorTp=0
 NAtoms=   50 NActive=   50 NUniq=   50 SFac= 1.00D+00 NAtFMM=   50 NAOKFM=T Big=T
 Leave Link  301 at Fri Nov 14 21:48:22 2014, MaxMem= 3758096384 cpu:       1.2
 (Enter /fimm/apps/gaussian/g09/l302.exe)
 NPDir=0 NMtPBC=     1 NCelOv=     1 NCel=       1 NClECP=     1 NCelD=      1
         NCelK=      1 NCelE2=     1 NClLst=     1 CellRange=     0.0.
 One-electron integrals computed using PRISM.
   1 Symmetry operations used in ECPInt.
 ECPInt:  NShTT=    3321 NPrTT=   30384 LenC2=    3040 LenP2D=   18752.
 LDataN:  DoStor=T MaxTD1= 5 Len=  102
 NBasis=   168 RedAO= T  NBF=   168
 NBsUse=   168 1.00D-06 NBFU=   168
 Leave Link  302 at Fri Nov 14 21:48:23 2014, MaxMem= 3758096384 cpu:       7.8
galloc:  could not allocate memory.
