4
 energy: -5.166206086113 gnorm: 0.271832656355 xtb: 6.4.1 (afa7bdf)
h         0.00000000000000    0.00000000000000    0.00000000000000
c         0.00000000000000    0.00000000000000    1.00000009297453
c         0.00000000000000    0.00000000000000    2.11670904000000
h         0.00000000000000    0.00000000000000    3.01631038200000
4
 energy: -5.202646177293 gnorm: 0.066783820207 xtb: 6.4.1 (afa7bdf)
h         0.00000000290366   -0.00000000068924   -0.09503640821327
c        -0.00000000956599    0.00000000227068    0.93470526522894
c         0.00000001170468   -0.00000000277834    2.14273239883856
h        -0.00000000504236    0.00000000119690    3.15061825912031
4
 energy: -5.203488256860 gnorm: 0.011728845635 xtb: 6.4.1 (afa7bdf)
h         0.00000000204139   -0.00000000027398   -0.10333691158613
c        -0.00000000744308    0.00000000132803    0.94161439171436
c         0.00000000983453   -0.00000000205601    2.13781304172797
h        -0.00000000443284    0.00000000100197    3.15692899311834
4
 energy: -5.203519511747 gnorm: 0.000532278765 xtb: 6.4.1 (afa7bdf)
h         0.00000000041447    0.00000000001776   -0.10601234938921
c        -0.00000000363370    0.00000000059926    0.94320458253977
c         0.00000000674454   -0.00000000139976    2.13712901140142
h        -0.00000000352531    0.00000000078274    3.15869827042256
4
 energy: -5.203519774379 gnorm: 0.000119785754 xtb: 6.4.1 (afa7bdf)
h        -0.00000000054245    0.00000000017130   -0.10662968779956
c        -0.00000000106985    0.00000000013458    0.94324161442287
c         0.00000000420402   -0.00000000087290    2.13736315176384
h        -0.00000000259171    0.00000000056702    3.15904443658739
