      -----------------------------------------------------------      
     |                   =====================                   |     
     |                           x T B                           |     
     |                   =====================                   |     
     |                         S. Grimme                         |     
     |          Mulliken Center for Theoretical Chemistry        |     
     |                    University of Bonn                     |     
      -----------------------------------------------------------      

   * xtb version 6.7.1 (edcfbbe) compiled by 'albert@albert-system' on 2024-07-22

   xtb is free software: you can redistribute it and/or modify it under
   the terms of the GNU Lesser General Public License as published by
   the Free Software Foundation, either version 3 of the License, or
   (at your option) any later version.
   
   xtb is distributed in the hope that it will be useful,
   but WITHOUT ANY WARRANTY; without even the implied warranty of
   MERCHANTABILITY or FITNESS FOR A PARTICULAR PURPOSE.  See the
   GNU Lesser General Public License for more details.
   
   Cite this work as:
   * C. Bannwarth, E. Caldeweyher, S. Ehlert, A. Hansen, P. Pracht,
     J. Seibert, S. Spicher, S. Grimme, WIREs Comput. Mol. Sci., 2020, 11,
     e01493. DOI: 10.1002/wcms.1493
   
   for GFN2-xTB:
   * C. Bannwarth, S. Ehlert and S. Grimme., J. Chem. Theory Comput., 2019,
     15, 1652-1671. DOI: 10.1021/acs.jctc.8b01176
   for GFN1-xTB:
   * S. Grimme, C. Bannwarth, P. Shushkov, J. Chem. Theory Comput., 2017,
     13, 1989-2009. DOI: 10.1021/acs.jctc.7b00118
   for GFN0-xTB:
   * P. Pracht, E. Caldeweyher, S. Ehlert, S. Grimme, ChemRxiv, 2019, preprint.
     DOI: 10.26434/chemrxiv.8326202.v1
   for GFN-FF:
   * S. Spicher and S. Grimme, Angew. Chem. Int. Ed., 2020, 59, 15665-15673.
     DOI: 10.1002/anie.202004239
   
   for ALPB and GBSA implicit solvation:
   * S. Ehlert, M. Stahn, S. Spicher, S. Grimme, J. Chem. Theory Comput.,
     2021, 17, 4250-4261. DOI: 10.1021/acs.jctc.1c00471
   
   for ddCOSMO and CPCM-X implicit solvation:
   * M. Stahn, S. Ehlert, S. Grimme, J. Phys. Chem. A,
     2023, XX, XXXX-XXXX. DOI: 10.1021/acs.jpca.3c04382
   
   for DFT-D4:
   * E. Caldeweyher, C. Bannwarth and S. Grimme, J. Chem. Phys., 2017,
     147, 034112. DOI: 10.1063/1.4993215
   * E. Caldeweyher, S. Ehlert, A. Hansen, H. Neugebauer, S. Spicher,
     C. Bannwarth and S. Grimme, J. Chem. Phys., 2019, 150, 154122.
     DOI: 10.1063/1.5090222
   * E. Caldeweyher, J.-M. Mewes, S. Ehlert and S. Grimme, Phys. Chem. Chem. Phys.
     2020, 22, 8499-8512. DOI: 10.1039/D0CP00502A
   
   for sTDA-xTB:
   * S. Grimme and C. Bannwarth, J. Chem. Phys., 2016, 145, 054103.
     DOI: 10.1063/1.4959605
   
   in the mass-spec context:
   * V. Asgeirsson, C. Bauer and S. Grimme, Chem. Sci., 2017, 8, 4879.
     DOI: 10.1039/c7sc00601b
   * J. Koopman and S. Grimme, ACS Omega 2019, 4, 12, 15120-15133.
     DOI: 10.1021/acsomega.9b02011
   
   for metadynamics refer to:
   * S. Grimme, J. Chem. Theory Comput., 2019, 155, 2847-2862
     DOI: 10.1021/acs.jctc.9b00143
   
   for SPH calculations refer to:
   * S. Spicher and S. Grimme, J. Chem. Theory Comput., 2021, 17, 1701-1714
     DOI: 10.1021/acs.jctc.0c01306
   
   for ONIOM refer to:
   * C. Plett, A. Katbashev, S. Ehlert, S. Grimme, M. Bursch,
     Phys. Chem. Chem. Phys., 2023, 25, 17860-17868. DOI: 10.1039/D3CP02178E
   
   for DIPRO refer to:
   * J. Kohn, N. Gildemeister, S. Grimme, D. Fazzi, A. Hansen,
     J. Chem. Phys., 2023, just accepted.
   
   for PTB refer to:
   * S. Grimme, M. Mueller, A. Hansen, J. Chem. Phys., 2023, 158, 124111.
     DOI: 10.1063/5.0137838
   
   with help from (in alphabetical order)
   P. Atkinson, C. Bannwarth, F. Bohle, G. Brandenburg, E. Caldeweyher
   M. Checinski, S. Dohm, S. Ehlert, S. Ehrlich, I. Gerasimov, C. Hölzer
   A. Katbashev, J. Kohn, J. Koopman, C. Lavigne, S. Lehtola, F. März, M. Müller,
   F. Musil, H. Neugebauer, J. Pisarek, C. Plett, P. Pracht, F. Pultar,
   J. Seibert, P. Shushkov, S. Spicher, M. Stahn, M. Steiner, T. Strunk,
   J. Stückrath, T. Rose, and J. Unsleber
   
 * started run on 2026/02/05 at 16:53:55.718     
   ID    Z sym.   atoms
    1    1 H      1, 3, 9, 11, 12, 14, 15, 17, 18, 20, 21, 23, 24, 26, 28,
                  29, 31, 32, 34, 35, 37, 38, 40, 41, 43, 45, 46, 48, 49, 51,
                  52, 54, 55, 57, 58, 60, 61, 67, 69, 70, 72, 73, 75, 76, 78,
                  79, 81, 82, 84, 86, 87, 89, 90, 92, 93, 95, 96, 98, 99,
                  101, 103, 104, 106, 107, 109, 110, 112, 113, 115, 116
    2    6 C      2, 8, 10, 13, 16, 19, 22, 25, 27, 30, 33, 36, 39, 42, 44,
                  47, 50, 53, 56, 59, 66, 68, 71, 74, 77, 80, 83, 85, 88, 91,
                  94, 97, 100, 102, 105, 108, 111, 114
    3   44 Ru     4, 62
    4   17 Cl     5, 6, 63, 64
    5   15 P      7, 65
constraining bond 4 2 to    1.9583195 Å, actual value:    1.9583197 Å
constraining bond 2 59 to    4.5531990 Å, actual value:    4.7101795 Å
constraining bond 4 5 to    2.3031051 Å, actual value:    2.3031053 Å
constraining bond 4 6 to    2.3276054 Å, actual value:    2.3276056 Å
constraining bond 4 7 to    2.3047934 Å, actual value:    2.3047936 Å
constraining bond 4 62 to    4.4889545 Å, actual value:    4.5749325 Å
constraining bond 62 59 to    1.9561826 Å, actual value:    1.9561828 Å
constraining bond 62 63 to    2.3224761 Å, actual value:    2.3224763 Å
constraining bond 62 64 to    2.3073429 Å, actual value:    2.3073431 Å
constraining bond 62 65 to    2.2989587 Å, actual value:    2.2989590 Å
constraining angle 2 4 5 to  108.6732038°, actual value:  108.6732038°
constraining angle 2 4 6 to   99.6551887°, actual value:   99.6551887°
constraining angle 2 4 7 to  106.7889121°, actual value:  106.7889121°
constraining angle 2 4 62 to   90.5003435°, actual value:   90.5003435°
constraining angle 5 4 6 to  145.1864869°, actual value:  145.1864869°
constraining angle 5 4 7 to   94.3903305°, actual value:   94.3903305°
constraining angle 5 4 62 to  118.7954321°, actual value:  118.7954321°
constraining angle 6 4 7 to   96.4176677°, actual value:   96.4176677°
constraining angle 6 4 62 to   39.5993671°, actual value:   39.5993671°
constraining angle 7 4 62 to  135.6014646°, actual value:  135.6014646°
constraining angle 4 62 59 to   93.3168136°, actual value:   93.3168136°
constraining angle 4 62 63 to   40.0807642°, actual value:   40.0807642°
constraining angle 4 62 64 to  119.6170152°, actual value:  119.6170152°
constraining angle 4 62 65 to  127.6952798°, actual value:  127.6952798°
constraining angle 59 62 63 to  104.3106510°, actual value:  104.3106510°
constraining angle 59 62 64 to  104.1610349°, actual value:  104.1610349°
constraining angle 59 62 65 to  111.3107766°, actual value:  111.3107766°
constraining angle 63 62 64 to  145.7526590°, actual value:  145.7526590°
constraining angle 63 62 65 to   88.2443550°, actual value:   88.2443550°
constraining angle 64 62 65 to   98.7473911°, actual value:   98.7473911°
constraining angle 5 4 2 1 to   85.8273716°, actual value:   85.8273716°
constraining angle 6 4 2 1 to  -73.6580396°, actual value:  -73.6580396°
constraining angle 7 4 2 1 to -173.4318036°, actual value: -173.4318036°
constraining angle 5 4 2 3 to  -92.4890133°, actual value:  -92.4890133°
constraining angle 6 4 2 3 to  108.0255756°, actual value:  108.0255756°
constraining angle 7 4 2 3 to    8.2518116°, actual value:    8.2518116°
constraining angle 63 62 59 60 to  -77.6019737°, actual value:  -77.6019737°
constraining angle 64 62 59 60 to   83.1652006°, actual value:   83.1652006°
constraining angle 65 62 59 60 to -171.3617757°, actual value: -171.3617757°
constraining angle 63 62 59 61 to  105.5949607°, actual value:  105.5949607°
constraining angle 64 62 59 61 to  -93.6378649°, actual value:  -93.6378649°
constraining angle 65 62 59 61 to   11.8351587°, actual value:   11.8351587°

           -------------------------------------------------
          |                Calculation Setup                |
           -------------------------------------------------

          program call               : xtb step_geom.sdf --input step_3.xcontrol --gfnff --opt
          hostname                   : c1-10
          coordinate file            : step_geom.sdf
          omp threads                :                    20


molecular fragmentation (1/2 indicates fragments):
111111111111111111111111111111111111111111111111111111111122222222222222
22222222222222222222222222222222222222222222
# atoms in fragment 1/2:    58    58
 fragment masses (1/2) :      466.43      466.43
CMA distance (Bohr)    :  13.751
constraining FC (au)   :  1.5000
########################################################################
[WARNING] Please study the warnings concerning your input carefully
-1- set_rdsetbl: Set-blocks will become obsolete in xtb 6.0 and newer
########################################################################
 
          ==================== Thresholds ====================
          CN  :   150.00000
          rep :   500.00000
          disp:  2500.00000
          HB1 :   250.00000
          HB2 :   450.00000
 
          Pauling EN used:
          Z : 1  EN :  2.20
          Z : 6  EN :  2.55
          Z :15  EN :  2.19
          Z :17  EN :  3.16
          Z :44  EN :  2.20
          electric field strengths (au): 0.000
 
           ------------------------------------------------- 
          |           Force Field Initialization            |
           ------------------------------------------------- 
 
          distances ...
          ----------------------------------------
          generating topology and atomic info file ...
          pair mat ...
          computing topology distances matrix with Floyd-Warshall algo ...
          making topology EEQ charges ...
          #fragments for EEQ constrain: 1
          ----------------------------------------
          generating topology and atomic info file ...
          pair mat ...
          computing topology distances matrix with Floyd-Warshall algo ...
          making topology EEQ charges ...
          #fragments for EEQ constrain: 1
          rings ...
          # BATM   1958
          # H in HB   0
 
  atom   neighbors  erfCN metchar sp-hybrid imet pi  qest     coordinates
    1  H       1    0.98   0.00         0    0    0   0.031   -3.649250    2.561146   -1.131568
    2  C       4    2.78   0.00         3    0    0  -0.075   -3.071750    2.084368    0.746631
    3  H       1    0.98   0.00         0    0    0   0.031   -1.107002    2.481966    0.988327
    4  Ru      5    3.51   0.01         0    2    0   0.339   -5.288588    0.616618    3.320816
    5  Cl      1    0.97   0.00         0    0    0  -0.255   -5.329973   -3.706887    2.823251
    6  Cl      1    1.11   0.00         0    0    0  -0.255   -7.693075    4.158720    4.330307
    7  P       4    3.73   0.02         3    0    0  -0.003   -3.007499    0.503612    7.029403
    8  C       4    3.49   0.00         3    0    0  -0.029   -1.088293    3.378263    7.620888
    9  H       1    0.98   0.01         0    0    0   0.025    0.722442    3.023940    6.676024
   10  C       4    3.52   0.00         3    0    0  -0.039   -2.280333    5.749114    6.443588
   11  H       1    0.97   0.00         0    0    0   0.026   -2.622751    5.458285    4.418180
   12  H       1    0.97   0.00         0    0    0   0.026   -4.153240    6.051092    7.272800
   13  C       4    3.48   0.00         3    0    0  -0.041   -0.619830    8.101823    6.887863
   14  H       1    0.97   0.00         0    0    0   0.027    1.178622    7.870142    5.883095
   15  H       1    0.97   0.01         0    0    0   0.027   -1.503466    9.789726    6.061674
   16  C       4    3.48   0.00         3    0    0  -0.037   -0.097510    8.491484    9.725664
   17  H       1    0.97   0.00         0    0    0   0.026   -1.878199    8.923287   10.696039
   18  H       1    0.97   0.01         0    0    0   0.026    1.116261   10.149152   10.030855
   19  C       4    3.48   0.00         3    0    0  -0.041    1.089616    6.109863   10.907877
   20  H       1    0.97   0.01         0    0    0   0.027    1.438082    6.385385   12.936498
   21  H       1    0.97   0.00         0    0    0   0.027    2.954398    5.780294   10.064492
   22  C       4    3.53   0.00         3    0    0  -0.039   -0.596587    3.777374   10.454343
   23  H       1    0.97   0.00         0    0    0   0.026   -2.406944    4.047415   11.422450
   24  H       1    0.97   0.00         0    0    0   0.026    0.228657    2.077187   11.308121
   25  C       4    3.49   0.00         3    0    0  -0.029   -0.925777   -2.293183    6.714197
   26  H       1    0.98   0.01         0    0    0   0.025   -2.206066   -3.884332    6.360062
   27  C       4    3.53   0.00         3    0    0  -0.039    0.545564   -2.815125    9.156290
   28  H       1    0.97   0.00         0    0    0   0.026    1.804499   -1.212637    9.527810
   29  H       1    0.97   0.01         0    0    0   0.026   -0.741529   -2.915092   10.781832
   30  C       4    3.48   0.00         3    0    0  -0.041    2.138225   -5.241911    8.909303
   31  H       1    0.97   0.01         0    0    0   0.027    3.179653   -5.624392   10.664858
   32  H       1    0.97   0.00         0    0    0   0.027    0.875510   -6.864808    8.647387
   33  C       4    3.48   0.00         3    0    0  -0.037    3.954063   -5.055773    6.639742
   34  H       1    0.97   0.00         0    0    0   0.026    5.335453   -3.550039    6.990097
   35  H       1    0.97   0.01         0    0    0   0.026    5.069757   -6.796967    6.445856
   36  C       4    3.48   0.00         3    0    0  -0.041    2.505021   -4.478273    4.179507
   37  H       1    0.97   0.00         0    0    0   0.027    1.275187   -6.080761    3.714446
   38  H       1    0.97   0.01         0    0    0   0.027    3.813845   -4.300828    2.577020
   39  C       4    3.52   0.00         3    0    0  -0.039    0.881557   -2.072463    4.455596
   40  H       1    0.97   0.00         0    0    0   0.026    2.111958   -0.428023    4.724882
   41  H       1    0.97   0.00         0    0    0   0.026   -0.183492   -1.697541    2.714970
   42  C       4    3.49   0.00         3    0    0  -0.029   -5.340366   -0.087872    9.588281
   43  H       1    0.97   0.01         0    0    0   0.025   -4.238467   -0.206358   11.339491
   44  C       4    3.52   0.00         3    0    0  -0.039   -7.270343    2.068683    9.825631
   45  H       1    0.97   0.00         0    0    0   0.026   -6.323213    3.886033   10.137436
   46  H       1    0.97   0.00         0    0    0   0.026   -8.261127    2.262380    8.019431
   47  C       4    3.48   0.00         3    0    0  -0.041   -9.228100    1.536725   11.912833
   48  H       1    0.97   0.01         0    0    0   0.027  -10.583411    3.102174   12.072515
   49  H       1    0.97   0.00         0    0    0   0.027   -8.266040    1.442050   13.746435
   50  C       4    3.48   0.00         3    0    0  -0.037  -10.597773   -0.979445   11.408088
   51  H       1    0.97   0.00         0    0    0   0.026  -11.667925   -0.832613    9.637792
   52  H       1    0.97   0.01         0    0    0   0.026  -12.009965   -1.364382   12.881507
   53  C       4    3.48   0.00         3    0    0  -0.041   -8.687260   -3.164535   11.198328
   54  H       1    0.97   0.00         0    0    0   0.027   -7.737106   -3.423050   13.022481
   55  H       1    0.97   0.01         0    0    0   0.027   -9.661603   -4.959019   10.820383
   56  C       4    3.53   0.00         3    0    0  -0.039   -6.692465   -2.622373    9.142495
   57  H       1    0.97   0.00         0    0    0   0.026   -7.607470   -2.574563    7.283193
   58  H       1    0.97   0.01         0    0    0   0.026   -5.313910   -4.170059    9.039505
   59  C       4    2.78   0.00         3    0    0  -0.075   -9.856622    7.108394   -2.073219
   60  H       1    0.98   0.00         0    0    0   0.031   -7.985794    7.745231   -1.647841
   61  H       1    0.98   0.00         0    0    0   0.031  -10.393305    7.736728   -3.915135
   62  Ru      5    3.52   0.01         0    2    0   0.339  -11.958754    5.219046    0.309348
   63  Cl      1    1.14   0.00         0    0    0  -0.255  -10.359290    1.134592    0.164784
   64  Cl      1    0.96   0.00         0    0    0  -0.255  -13.759474    8.297976    2.817204
   65  P       4    3.73   0.02         3    0    0  -0.003  -15.565107    3.731453   -1.602488
   66  C       4    3.49   0.00         3    0    0  -0.029  -16.876010    1.346619    0.663483
   67  H       1    0.97   0.01         0    0    0   0.025  -18.933355    1.453199    0.434826
   68  C       4    3.52   0.00         3    0    0  -0.039  -16.035460   -1.366839    0.041385
   69  H       1    0.97   0.00         0    0    0   0.026  -16.602756   -1.875931   -1.887836
   70  H       1    0.97   0.00         0    0    0   0.026  -13.966588   -1.449231    0.061605
   71  C       4    3.48   0.00         3    0    0  -0.041  -17.104100   -3.298139    1.946229
   72  H       1    0.97   0.00         0    0    0   0.027  -19.168248   -3.366547    1.766705
   73  H       1    0.97   0.01         0    0    0   0.027  -16.444586   -5.214888    1.494395
   74  C       4    3.48   0.00         3    0    0  -0.037  -16.398098   -2.584956    4.677639
   75  H       1    0.97   0.00         0    0    0   0.026  -14.338675   -2.686624    4.900627
   76  H       1    0.97   0.01         0    0    0   0.026  -17.173075   -3.958220    6.029549
   77  C       4    3.48   0.00         3    0    0  -0.041  -17.299687    0.109604    5.299359
   78  H       1    0.97   0.01         0    0    0   0.027  -16.810626    0.626822    7.250501
   79  H       1    0.97   0.00         0    0    0   0.027  -19.368937    0.184248    5.203172
   80  C       4    3.52   0.00         3    0    0  -0.039  -16.178701    2.014637    3.407743
   81  H       1    0.97   0.00         0    0    0   0.026  -14.114931    1.986480    3.591236
   82  H       1    0.97   0.00         0    0    0   0.026  -16.746942    3.955764    3.866191
   83  C       4    3.49   0.00         3    0    0  -0.029  -14.815831    2.109501   -4.628506
   84  H       1    0.98   0.01         0    0    0   0.025  -14.017610    0.280057   -4.071793
   85  C       4    3.51   0.00         3    0    0  -0.039  -12.820847    3.452341   -6.251214
   86  H       1    0.97   0.00         0    0    0   0.026  -13.488298    5.350004   -6.733094
   87  H       1    0.97   0.00         0    0    0   0.026  -11.079464    3.714635   -5.156307
   88  C       4    3.48   0.00         3    0    0  -0.041  -12.267535    1.958701   -8.693685
   89  H       1    0.97   0.01         0    0    0   0.027  -10.874051    2.959689   -9.863803
   90  H       1    0.97   0.00         0    0    0   0.027  -11.379553    0.150800   -8.203490
   91  C       4    3.48   0.00         3    0    0  -0.037  -14.707927    1.456790  -10.201875
   92  H       1    0.97   0.00         0    0    0   0.026  -15.481392    3.260344  -10.871783
   93  H       1    0.97   0.01         0    0    0   0.026  -14.303148    0.356780  -11.916424
   94  C       4    3.48   0.00         3    0    0  -0.041  -16.696486    0.110171   -8.555546
   95  H       1    0.97   0.00         0    0    0   0.027  -15.992185   -1.765004   -8.022076
   96  H       1    0.97   0.01         0    0    0   0.027  -18.441459   -0.233381   -9.627588
   97  C       4    3.53   0.00         3    0    0  -0.039  -17.243751    1.653888   -6.147090
   98  H       1    0.97   0.00         0    0    0   0.026  -18.041593    3.487868   -6.691142
   99  H       1    0.97   0.01         0    0    0   0.026  -18.688069    0.743607   -4.964877
  100  C       4    3.49   0.00         3    0    0  -0.029  -17.912903    6.298646   -2.083423
  101  H       1    0.97   0.01         0    0    0   0.025  -19.300151    5.547480   -3.426262
  102  C       4    3.52   0.00         3    0    0  -0.039  -19.305631    6.974790    0.374166
  103  H       1    0.97   0.01         0    0    0   0.026  -20.239912    5.302194    1.170685
  104  H       1    0.97   0.00         0    0    0   0.026  -17.916304    7.565896    1.788815
  105  C       4    3.48   0.00         3    0    0  -0.041  -21.227483    9.123976   -0.043464
  106  H       1    0.97   0.01         0    0    0   0.027  -22.198991    9.599053    1.729477
  107  H       1    0.97   0.00         0    0    0   0.027  -22.713752    8.472965   -1.333769
  108  C       4    3.48   0.00         3    0    0  -0.037  -19.927540   11.468748   -1.173331
  109  H       1    0.97   0.00         0    0    0   0.026  -18.551252   12.209143    0.189540
  110  H       1    0.97   0.01         0    0    0   0.026  -21.295513   13.002639   -1.473042
  111  C       4    3.48   0.00         3    0    0  -0.041  -18.557488   10.798462   -3.651518
  112  H       1    0.97   0.00         0    0    0   0.027  -19.950784   10.209812   -5.069379
  113  H       1    0.97   0.01         0    0    0   0.027  -17.620373   12.469547   -4.452762
  114  C       4    3.53   0.00         3    0    0  -0.039  -16.643385    8.642096   -3.230487
  115  H       1    0.97   0.00         0    0    0   0.026  -15.149178    9.285925   -1.946607
  116  H       1    0.97   0.00         0    0    0   0.026  -15.683026    8.154168   -5.002105
 
          #atoms :   116
          #bonds :   122
          #angl  :   260
          #tors  :   411
          #nmol  :   1
          #optfrag :   1
           ------------------------------------------------- 
          |                   G F N - F F                   |
          |          A general generic force-field          |
          |                  Version 1.0.3                  | 
           ------------------------------------------------- 
          Number of HB bonds (bound hydrogen)     0
          Number of HB bonds (unbound hydrogen)   0
          Number of XB bonds                      0

 E+G (total)                   0 d,  0 h,  0 min,  0.007 sec
 distance/D3 list               ...        0 min,  0.000 sec (  0.214%)
 non bonded repulsion           ...        0 min,  0.000 sec (  4.156%)
 dCN                            ...        0 min,  0.000 sec (  2.030%)
 EEQ energy and q               ...        0 min,  0.001 sec ( 14.038%)
 D3                             ...        0 min,  0.002 sec ( 30.361%)
 EEQ gradient                   ...        0 min,  0.000 sec (  2.728%)
 bonds                          ...        0 min,  0.001 sec (  7.417%)
 bend and torsion               ...        0 min,  0.001 sec (  6.697%)
 bonded ATM                     ...        0 min,  0.002 sec ( 31.683%)
 HB/XB (incl list setup)        ...        0 min,  0.000 sec (  0.255%)

         :::::::::::::::::::::::::::::::::::::::::::::::::::::
         ::                     SUMMARY                     ::
         :::::::::::::::::::::::::::::::::::::::::::::::::::::
         :: total energy             -16.645145381859 Eh    ::
         :: gradient norm              1.428717044126 Eh/a0 ::
         ::.................................................::
         :: bond energy              -17.654631584570 Eh    ::
         :: angle energy               0.066383822400 Eh    ::
         :: torsion energy             0.061526442374 Eh    ::
         :: repulsion energy           1.021826933404 Eh    ::
         :: electrostat energy        -0.144740194083 Eh    ::
         :: dispersion energy         -0.149617913257 Eh    ::
         :: HB energy                  0.000000000000 Eh    ::
         :: XB energy                  0.000000000000 Eh    ::
         :: bonded atm energy         -0.017491884831 Eh    ::
         :: external energy            0.000000000000 Eh    ::
         :: add. restraining           0.171598996704 Eh    ::
         :: total charge               0.000000000000 e     ::
         :::::::::::::::::::::::::::::::::::::::::::::::::::::

      ----------------------------------------------------------- 
     |                   =====================                   |
     |                        A N C O P T                        |
     |                   =====================                   |
     |               Approximate Normal Coordinate               |
     |                Rational Function Optimizer                |
      ----------------------------------------------------------- 
      ----------------------------------------------------------- 
     |                   =====================                   |
     |                        A N C O P T                        |
     |                   =====================                   |
     |               Approximate Normal Coordinate               |
     |                Rational Function Optimizer                |
      ----------------------------------------------------------- 

          ...................................................
          :                      SETUP                      :
          :.................................................:
          :   optimization level            normal          :
          :   max. optcycles                   348          :
          :   ANC micro-cycles                  20          :
          :   degrees of freedom               342          :
          :.................................................:
          :   RF solver                   davidson          :
          :   write xtbopt.log                true          :
          :   linear?                        false          :
          :   energy convergence         0.5000000E-05 Eh   :
          :   grad. convergence          0.1000000E-02 Eh/α :
          :   maxmium RF displ.          1.0000000          :
          :   Hlow (freq-cutoff)         0.1000000E-01      :
          :   Hmax (freq-cutoff)         5.0000000          :
          :   S6 in model hess.         20.0000000          :
          ...................................................

generating ANC from exact Hessian ...
Using GFN-FF Lindh-Hessian
 Shifting diagonal of input Hessian by   9.969607481228653E-003
 Lowest  eigenvalues of input Hessian
    0.000000    0.000000    0.000000    0.000000    0.000000    0.000000
    0.010000    0.010014    0.010018    0.010072    0.010176    0.010250
    0.010276    0.010302    0.010320    0.010345    0.010373    0.010458
 Highest eigenvalues
    7.876971    8.407204    8.796598   10.471630   11.161913   14.614716
 

........................................................................
.............................. CYCLE    1 ..............................
........................................................................
     iter. time                 ...        0 min,  0.003 sec
 * total energy  :   -16.6451454 Eh     change        0.0000000E+00 Eh
   gradient norm :     1.4287170 Eh/α   predicted     0.0000000E+00 (    NaN%)
   displ. norm   :     0.3391229 α      lambda       -0.4312680E+00
   maximum displ.:     0.2170188 α      in ANC's #341, #220, #334, ...

........................................................................
.............................. CYCLE    2 ..............................
........................................................................
     iter. time                 ...        0 min,  0.003 sec
 * total energy  :   -16.7458210 Eh     change       -0.1006756E+00 Eh
   gradient norm :     1.1416925 Eh/α   predicted    -0.2404336E+00 ( 138.82%)
   displ. norm   :     0.1781256 α      lambda       -0.1413162E+00
   maximum displ.:     0.1080889 α      in ANC's #341, #220, #213, ...

........................................................................
.............................. CYCLE    3 ..............................
........................................................................
     iter. time                 ...        0 min,  0.004 sec
 * total energy  :   -16.8124117 Eh     change       -0.6659067E-01 Eh
   gradient norm :     0.1308718 Eh/α   predicted    -0.7290472E-01 (   9.48%)
   displ. norm   :     0.0870150 α      lambda       -0.5781478E-02
   maximum displ.:     0.0318974 α      in ANC's #25, #72, #38, ...

........................................................................
.............................. CYCLE    4 ..............................
........................................................................
     iter. time                 ...        0 min,  0.005 sec
 * total energy  :   -16.8132335 Eh     change       -0.8218414E-03 Eh
   gradient norm :     0.1509515 Eh/α   predicted    -0.2069905E-02 ( 151.86%)
   displ. norm   :     0.0669566 α      lambda       -0.5340633E-02
   maximum displ.:     0.0325136 α      in ANC's #25, #27, #72, ...

........................................................................
.............................. CYCLE    5 ..............................
........................................................................
     iter. time                 ...        0 min,  0.005 sec
 * total energy  :   -16.8140492 Eh     change       -0.8156724E-03 Eh
   gradient norm :     0.0562969 Eh/α   predicted    -0.1117993E-02 (  37.06%)
   displ. norm   :     0.0487456 α      lambda       -0.1739860E-02
   maximum displ.:     0.0252764 α      in ANC's #25, #27, #22, ...

........................................................................
.............................. CYCLE    6 ..............................
........................................................................
     iter. time                 ...        0 min,  0.005 sec
 * total energy  :   -16.8142473 Eh     change       -0.1981044E-03 Eh
   gradient norm :     0.0264881 Eh/α   predicted    -0.2577481E-03 (  30.11%)
   displ. norm   :     0.0465227 α      lambda       -0.5462437E-03
   maximum displ.:     0.0247012 α      in ANC's #25, #21, #27, ...

........................................................................
.............................. CYCLE    7 ..............................
........................................................................
     iter. time                 ...        0 min,  0.005 sec
 * total energy  :   -16.8143222 Eh     change       -0.7488356E-04 Eh
   gradient norm :     0.0076910 Eh/α   predicted    -0.6250798E-04 ( -16.53%)
   displ. norm   :     0.0730853 α      lambda       -0.3351904E-03
   maximum displ.:     0.0379878 α      in ANC's #25, #18, #21, ...

........................................................................
.............................. CYCLE    8 ..............................
........................................................................
     iter. time                 ...        0 min,  0.005 sec
 * total energy  :   -16.8143659 Eh     change       -0.4364417E-04 Eh
   gradient norm :     0.0085761 Eh/α   predicted    -0.3144064E-04 ( -27.96%)
   displ. norm   :     0.1228689 α      lambda       -0.4960396E-03
   maximum displ.:     0.0611014 α      in ANC's #25, #18, #21, ...

........................................................................
.............................. CYCLE    9 ..............................
........................................................................
     iter. time                 ...        0 min,  0.004 sec
 * total energy  :   -16.8144006 Eh     change       -0.3470554E-04 Eh
   gradient norm :     0.0089574 Eh/α   predicted    -0.3467505E-04 (  -0.09%)
   displ. norm   :     0.0550584 α      lambda       -0.1702966E-03
   maximum displ.:     0.0204046 α      in ANC's #25, #18, #6, ...

........................................................................
.............................. CYCLE   10 ..............................
........................................................................
     iter. time                 ...        0 min,  0.005 sec
 * total energy  :   -16.8144131 Eh     change       -0.1255842E-04 Eh
   gradient norm :     0.0034899 Eh/α   predicted    -0.1073119E-04 ( -14.55%)
   displ. norm   :     0.0356364 α      lambda       -0.9563136E-04
   maximum displ.:     0.0154032 α      in ANC's #6, #1, #18, ...

........................................................................
.............................. CYCLE   11 ..............................
........................................................................
     iter. time                 ...        0 min,  0.004 sec
 * total energy  :   -16.8144218 Eh     change       -0.8731861E-05 Eh
   gradient norm :     0.0031898 Eh/α   predicted    -0.5385350E-05 ( -38.33%)
   displ. norm   :     0.0773380 α      lambda       -0.2058367E-03
   maximum displ.:     0.0353765 α      in ANC's #1, #6, #18, ...

........................................................................
.............................. CYCLE   12 ..............................
........................................................................
     iter. time                 ...        0 min,  0.004 sec
 * total energy  :   -16.8144340 Eh     change       -0.1211963E-04 Eh
   gradient norm :     0.0034209 Eh/α   predicted    -0.9676220E-05 ( -20.16%)
   displ. norm   :     0.0530993 α      lambda       -0.8119051E-04
   maximum displ.:     0.0266824 α      in ANC's #1, #6, #10, ...

........................................................................
.............................. CYCLE   13 ..............................
........................................................................
     iter. time                 ...        0 min,  0.004 sec
 * total energy  :   -16.8144390 Eh     change       -0.5045487E-05 Eh
   gradient norm :     0.0021751 Eh/α   predicted    -0.3504142E-05 ( -30.55%)
   displ. norm   :     0.0473442 α      lambda       -0.7368433E-04
   maximum displ.:     0.0260856 α      in ANC's #1, #6, #10, ...

........................................................................
.............................. CYCLE   14 ..............................
........................................................................
     iter. time                 ...        0 min,  0.004 sec
 * total energy  :   -16.8144431 Eh     change       -0.4078638E-05 Eh
   gradient norm :     0.0007677 Eh/α   predicted    -0.2716648E-05 ( -33.39%)
   displ. norm   :     0.0698394 α      lambda       -0.7155294E-04
   maximum displ.:     0.0414154 α      in ANC's #1, #6, #9, ...

   *** GEOMETRY OPTIMIZATION CONVERGED AFTER 14 ITERATIONS ***

------------------------------------------------------------------------
 total energy gain   :        -0.1692977 Eh     -106.2359 kcal/mol
 total RMSD          :         0.0669327 a0        0.0354 Å
 total power (kW/mol):       -31.7493624 (step)-4586.4912 (real)
------------------------------------------------------------------------

 ANCopt (total)                0 d,  0 h,  0 min,  0.097 sec
 optimizer setup                ...        0 min,  0.001 sec (  0.586%)
 model hessian                  ...        0 min,  0.004 sec (  4.016%)
 ANC generation                 ...        0 min,  0.023 sec ( 23.541%)
 coordinate transformation      ...        0 min,  0.000 sec (  0.452%)
 single point calculation       ...        0 min,  0.061 sec ( 63.080%)
 optimization log               ...        0 min,  0.002 sec (  2.520%)
 hessian update                 ...        0 min,  0.001 sec (  1.186%)
 rational function              ...        0 min,  0.004 sec (  4.067%)

================
 final structure:
================
 xtb: 6.7.1 (edcfbbe)
          02052616533D

116122  0     0  0            999 V2000
   -2.0113    1.3838   -0.6157 H   0  0  0  0  0  0  0  0  0  0  0  0
   -1.6934    1.1288    0.3740 C   0  0  0  0  0  0  0  0  0  0  0  0
   -0.6535    1.3443    0.4912 H   0  0  0  0  0  0  0  0  0  0  0  0
   -2.8432    0.3388    1.7518 Ru  0  0  0  0  0  0  0  0  0  0  0  0
   -2.8612   -1.9485    1.4788 Cl  0  0  0  0  0  0  0  0  0  0  0  0
   -4.1209    2.2027    2.3088 Cl  0  0  0  0  0  0  0  0  0  0  0  0
   -1.6158    0.2800    3.7009 P   0  0  0  0  0  4  0  0  0  0  0  0
   -0.5966    1.7976    4.0152 C   0  0  0  0  0  0  0  0  0  0  0  0
    0.3589    1.6106    3.5101 H   0  0  0  0  0  0  0  0  0  0  0  0
   -1.2269    3.0569    3.4011 C   0  0  0  0  0  0  0  0  0  0  0  0
   -1.4157    2.9079    2.3299 H   0  0  0  0  0  0  0  0  0  0  0  0
   -2.2146    3.2185    3.8470 H   0  0  0  0  0  0  0  0  0  0  0  0
   -0.3415    4.2973    3.6365 C   0  0  0  0  0  0  0  0  0  0  0  0
    0.6064    4.1731    3.0983 H   0  0  0  0  0  0  0  0  0  0  0  0
   -0.8077    5.1945    3.2061 H   0  0  0  0  0  0  0  0  0  0  0  0
   -0.0542    4.4960    5.1374 C   0  0  0  0  0  0  0  0  0  0  0  0
   -0.9920    4.7273    5.6579 H   0  0  0  0  0  0  0  0  0  0  0  0
    0.5937    5.3692    5.2984 H   0  0  0  0  0  0  0  0  0  0  0  0
    0.5716    3.2301    5.7540 C   0  0  0  0  0  0  0  0  0  0  0  0
    0.7640    3.3701    6.8269 H   0  0  0  0  0  0  0  0  0  0  0  0
    1.5543    3.0522    5.3002 H   0  0  0  0  0  0  0  0  0  0  0  0
   -0.3291    2.0019    5.5142 C   0  0  0  0  0  0  0  0  0  0  0  0
   -1.2844    2.1500    6.0303 H   0  0  0  0  0  0  0  0  0  0  0  0
    0.1029    1.0981    5.9622 H   0  0  0  0  0  0  0  0  0  0  0  0
   -0.5175   -1.2019    3.5275 C   0  0  0  0  0  0  0  0  0  0  0  0
   -1.1966   -2.0421    3.3380 H   0  0  0  0  0  0  0  0  0  0  0  0
    0.2615   -1.4842    4.8183 C   0  0  0  0  0  0  0  0  0  0  0  0
    0.9312   -0.6392    5.0161 H   0  0  0  0  0  0  0  0  0  0  0  0
   -0.4186   -1.5368    5.6792 H   0  0  0  0  0  0  0  0  0  0  0  0
    1.0996   -2.7711    4.6837 C   0  0  0  0  0  0  0  0  0  0  0  0
    1.6509   -2.9774    5.6117 H   0  0  0  0  0  0  0  0  0  0  0  0
    0.4283   -3.6273    4.5438 H   0  0  0  0  0  0  0  0  0  0  0  0
    2.0596   -2.6727    3.4821 C   0  0  0  0  0  0  0  0  0  0  0  0
    2.7938   -1.8792    3.6693 H   0  0  0  0  0  0  0  0  0  0  0  0
    2.6464   -3.5960    3.3764 H   0  0  0  0  0  0  0  0  0  0  0  0
    1.2930   -2.3602    2.1817 C   0  0  0  0  0  0  0  0  0  0  0  0
    0.6390   -3.2053    1.9335 H   0  0  0  0  0  0  0  0  0  0  0  0
    1.9854   -2.2666    1.3336 H   0  0  0  0  0  0  0  0  0  0  0  0
    0.4382   -1.0844    2.3318 C   0  0  0  0  0  0  0  0  0  0  0  0
    1.0924   -0.2169    2.4765 H   0  0  0  0  0  0  0  0  0  0  0  0
   -0.1256   -0.8809    1.4118 H   0  0  0  0  0  0  0  0  0  0  0  0
   -2.8424   -0.0380    5.0629 C   0  0  0  0  0  0  0  0  0  0  0  0
   -2.2537   -0.1031    5.9858 H   0  0  0  0  0  0  0  0  0  0  0  0
   -3.8649    1.1006    5.2011 C   0  0  0  0  0  0  0  0  0  0  0  0
   -3.3647    2.0637    5.3605 H   0  0  0  0  0  0  0  0  0  0  0  0
   -4.4008    1.2016    4.2517 H   0  0  0  0  0  0  0  0  0  0  0  0
   -4.8878    0.8148    6.3165 C   0  0  0  0  0  0  0  0  0  0  0  0
   -5.6052    1.6418    6.4117 H   0  0  0  0  0  0  0  0  0  0  0  0
   -4.3676    0.7623    7.2807 H   0  0  0  0  0  0  0  0  0  0  0  0
   -5.6135   -0.5171    6.0534 C   0  0  0  0  0  0  0  0  0  0  0  0
   -6.1905   -0.4375    5.1233 H   0  0  0  0  0  0  0  0  0  0  0  0
   -6.3518   -0.7245    6.8408 H   0  0  0  0  0  0  0  0  0  0  0  0
   -4.6021   -1.6715    5.9275 C   0  0  0  0  0  0  0  0  0  0  0  0
   -4.0884   -1.8106    6.8867 H   0  0  0  0  0  0  0  0  0  0  0  0
   -5.1183   -2.6213    5.7300 H   0  0  0  0  0  0  0  0  0  0  0  0
   -3.5589   -1.3792    4.8291 C   0  0  0  0  0  0  0  0  0  0  0  0
   -4.0544   -1.3500    3.8510 H   0  0  0  0  0  0  0  0  0  0  0  0
   -2.8295   -2.1973    4.7629 H   0  0  0  0  0  0  0  0  0  0  0  0
   -5.1560    3.7223   -1.0579 C   0  0  0  0  0  0  0  0  0  0  0  0
   -4.1639    4.0474   -0.8235 H   0  0  0  0  0  0  0  0  0  0  0  0
   -5.4262    4.0569   -2.0357 H   0  0  0  0  0  0  0  0  0  0  0  0
   -6.2984    2.7377    0.1918 Ru  0  0  0  0  0  0  0  0  0  0  0  0
   -5.4772    0.5661    0.1271 Cl  0  0  0  0  0  0  0  0  0  0  0  0
   -7.2424    4.3772    1.5132 Cl  0  0  0  0  0  0  0  0  0  0  0  0
   -8.2062    1.9682   -0.8334 P   0  0  0  0  0  4  0  0  0  0  0  0
   -8.9116    0.7038    0.3578 C   0  0  0  0  0  0  0  0  0  0  0  0
   -9.9995    0.7656    0.2321 H   0  0  0  0  0  0  0  0  0  0  0  0
   -8.4724   -0.7334    0.0256 C   0  0  0  0  0  0  0  0  0  0  0  0
   -8.7684   -0.9980   -0.9978 H   0  0  0  0  0  0  0  0  0  0  0  0
   -7.3781   -0.7826    0.0417 H   0  0  0  0  0  0  0  0  0  0  0  0
   -9.0475   -1.7562    1.0272 C   0  0  0  0  0  0  0  0  0  0  0  0
  -10.1394   -1.7868    0.9270 H   0  0  0  0  0  0  0  0  0  0  0  0
   -8.7023   -2.7714    0.7863 H   0  0  0  0  0  0  0  0  0  0  0  0
   -8.6789   -1.3855    2.4756 C   0  0  0  0  0  0  0  0  0  0  0  0
   -7.5898   -1.4437    2.5981 H   0  0  0  0  0  0  0  0  0  0  0  0
   -9.0947   -2.1132    3.1868 H   0  0  0  0  0  0  0  0  0  0  0  0
   -9.1519    0.0412    2.8071 C   0  0  0  0  0  0  0  0  0  0  0  0
   -8.8988    0.3100    3.8422 H   0  0  0  0  0  0  0  0  0  0  0  0
  -10.2464    0.0853    2.7490 H   0  0  0  0  0  0  0  0  0  0  0  0
   -8.5482    1.0500    1.8131 C   0  0  0  0  0  0  0  0  0  0  0  0
   -7.4567    1.0284    1.9158 H   0  0  0  0  0  0  0  0  0  0  0  0
   -8.8440    2.0780    2.0582 H   0  0  0  0  0  0  0  0  0  0  0  0
   -7.8165    1.1137   -2.4377 C   0  0  0  0  0  0  0  0  0  0  0  0
   -7.3958    0.1438   -2.1465 H   0  0  0  0  0  0  0  0  0  0  0  0
   -6.7619    1.8234   -3.2985 C   0  0  0  0  0  0  0  0  0  0  0  0
   -7.1119    2.8299   -3.5486 H   0  0  0  0  0  0  0  0  0  0  0  0
   -5.8377    1.9566   -2.7223 H   0  0  0  0  0  0  0  0  0  0  0  0
   -6.4775    1.0361   -4.5951 C   0  0  0  0  0  0  0  0  0  0  0  0
   -5.7421    1.5663   -5.2163 H   0  0  0  0  0  0  0  0  0  0  0  0
   -6.0082    0.0777   -4.3411 H   0  0  0  0  0  0  0  0  0  0  0  0
   -7.7731    0.7758   -5.3881 C   0  0  0  0  0  0  0  0  0  0  0  0
   -8.1817    1.7320   -5.7382 H   0  0  0  0  0  0  0  0  0  0  0  0
   -7.5645    0.1955   -6.2979 H   0  0  0  0  0  0  0  0  0  0  0  0
   -8.8233    0.0635   -4.5142 C   0  0  0  0  0  0  0  0  0  0  0  0
   -8.4518   -0.9303   -4.2356 H   0  0  0  0  0  0  0  0  0  0  0  0
   -9.7496   -0.1147   -5.0780 H   0  0  0  0  0  0  0  0  0  0  0  0
   -9.1053    0.8784   -3.2369 C   0  0  0  0  0  0  0  0  0  0  0  0
   -9.5254    1.8508   -3.5210 H   0  0  0  0  0  0  0  0  0  0  0  0
   -9.8686    0.3977   -2.6094 H   0  0  0  0  0  0  0  0  0  0  0  0
   -9.4433    3.3331   -1.0821 C   0  0  0  0  0  0  0  0  0  0  0  0
  -10.1804    2.9404   -1.7924 H   0  0  0  0  0  0  0  0  0  0  0  0
  -10.1796    3.6936    0.2181 C   0  0  0  0  0  0  0  0  0  0  0  0
  -10.6697    2.8089    0.6450 H   0  0  0  0  0  0  0  0  0  0  0  0
   -9.4442    4.0129    0.9639 H   0  0  0  0  0  0  0  0  0  0  0  0
  -11.2003    4.8268   -0.0073 C   0  0  0  0  0  0  0  0  0  0  0  0
  -11.7145    5.0804    0.9303 H   0  0  0  0  0  0  0  0  0  0  0  0
  -11.9861    4.4767   -0.6880 H   0  0  0  0  0  0  0  0  0  0  0  0
  -10.5171    6.0678   -0.6109 C   0  0  0  0  0  0  0  0  0  0  0  0
   -9.7934    6.4686    0.1099 H   0  0  0  0  0  0  0  0  0  0  0  0
  -11.2456    6.8740   -0.7766 H   0  0  0  0  0  0  0  0  0  0  0  0
   -9.7866    5.7101   -1.9187 C   0  0  0  0  0  0  0  0  0  0  0  0
  -10.5206    5.3931   -2.6698 H   0  0  0  0  0  0  0  0  0  0  0  0
   -9.2924    6.5942   -2.3450 H   0  0  0  0  0  0  0  0  0  0  0  0
   -8.7708    4.5730   -1.6883 C   0  0  0  0  0  0  0  0  0  0  0  0
   -7.9855    4.9175   -1.0045 H   0  0  0  0  0  0  0  0  0  0  0  0
   -8.2557    4.3145   -2.6217 H   0  0  0  0  0  0  0  0  0  0  0  0
  1  2  1  0  0  0  0
  2  3  1  0  0  0  0
  4  2  1  0  0  0  0
  4  5  1  0  0  0  0
  4  6  1  0  0  0  0
  4  7  1  0  0  0  0
  8  7  1  0  0  0  0
  9  8  1  0  0  0  0
 10  8  1  0  0  0  0
 11 10  1  0  0  0  0
 12 10  1  0  0  0  0
 13 10  1  0  0  0  0
 14 13  1  0  0  0  0
 15 13  1  0  0  0  0
 16 13  1  0  0  0  0
 16 17  1  0  0  0  0
 18 16  1  0  0  0  0
 19 16  1  0  0  0  0
 20 19  1  0  0  0  0
 21 19  1  0  0  0  0
 22  8  1  0  0  0  0
 23 22  1  0  0  0  0
 24 22  1  0  0  0  0
 25  7  1  0  0  0  0
 26 25  1  0  0  0  0
 27 25  1  0  0  0  0
 28 27  1  0  0  0  0
 29 27  1  0  0  0  0
 30 27  1  0  0  0  0
 31 30  1  0  0  0  0
 32 30  1  0  0  0  0
 33 30  1  0  0  0  0
 33 34  1  0  0  0  0
 35 33  1  0  0  0  0
 33 36  1  0  0  0  0
 37 36  1  0  0  0  0
 38 36  1  0  0  0  0
 36 39  1  0  0  0  0
 40 39  1  0  0  0  0
 41 39  1  0  0  0  0
 42  7  1  0  0  0  0
 43 42  1  0  0  0  0
 44 42  1  0  0  0  0
 45 44  1  0  0  0  0
 46 44  1  0  0  0  0
 44 47  1  0  0  0  0
 48 47  1  0  0  0  0
 49 47  1  0  0  0  0
 47 50  1  0  0  0  0
 50 51  1  0  0  0  0
 52 50  1  0  0  0  0
 50 53  1  0  0  0  0
 54 53  1  0  0  0  0
 55 53  1  0  0  0  0
 53 56  1  0  0  0  0
 56 57  1  0  0  0  0
 58 56  1  0  0  0  0
 59  2  1  0  0  0  0
 59 60  1  0  0  0  0
 61 59  1  0  0  0  0
 59 62  1  0  0  0  0
 63 62  1  0  0  0  0
 62 64  1  0  0  0  0
 62 65  1  0  0  0  0
 66 65  1  0  0  0  0
 67 66  1  0  0  0  0
 68 66  1  0  0  0  0
 69 68  1  0  0  0  0
 70 68  1  0  0  0  0
 71 68  1  0  0  0  0
 72 71  1  0  0  0  0
 73 71  1  0  0  0  0
 74 71  1  0  0  0  0
 74 75  1  0  0  0  0
 76 74  1  0  0  0  0
 77 74  1  0  0  0  0
 78 77  1  0  0  0  0
 79 77  1  0  0  0  0
 80 66  1  0  0  0  0
 81 80  1  0  0  0  0
 82 80  1  0  0  0  0
 83 65  1  0  0  0  0
 84 83  1  0  0  0  0
 85 83  1  0  0  0  0
 86 85  1  0  0  0  0
 87 85  1  0  0  0  0
 88 85  1  0  0  0  0
 89 88  1  0  0  0  0
 90 88  1  0  0  0  0
 91 88  1  0  0  0  0
 91 92  1  0  0  0  0
 93 91  1  0  0  0  0
 91 94  1  0  0  0  0
 95 94  1  0  0  0  0
 96 94  1  0  0  0  0
 94 97  1  0  0  0  0
 98 97  1  0  0  0  0
 99 97  1  0  0  0  0
100 65  1  0  0  0  0
101100  1  0  0  0  0
102100  1  0  0  0  0
103102  1  0  0  0  0
104102  1  0  0  0  0
102105  1  0  0  0  0
106105  1  0  0  0  0
107105  1  0  0  0  0
105108  1  0  0  0  0
108109  1  0  0  0  0
110108  1  0  0  0  0
108111  1  0  0  0  0
112111  1  0  0  0  0
113111  1  0  0  0  0
111114  1  0  0  0  0
114115  1  0  0  0  0
116114  1  0  0  0  0
 80 77  1  0  0  0  0
 97 83  1  0  0  0  0
114100  1  0  0  0  0
 22 19  1  0  0  0  0
 39 25  1  0  0  0  0
 56 42  1  0  0  0  0
  4 62  1  0  0  0  0
M  END
$$$$
 
 Bond Distances (Angstroems)
 ---------------------------
H1-C2=1.0703         C2-H1=1.0703         C2-H3=1.0685         C2-Ru4=1.9607        H3-C2=1.0685         Ru4-C2=1.9607        
Ru4-Cl5=2.3036       Ru4-Cl6=2.3274       Ru4-P7=2.3040        Cl5-Ru4=2.3036       Cl6-Ru4=2.3274       P7-Ru4=2.3040        
P7-C8=1.8549         P7-C25=1.8527        P7-C42=1.8604        C8-P7=1.8549         C8-H9=1.0969         C8-C10=1.5363        
C8-C22=1.5363        H9-C8=1.0969         C10-C8=1.5363        C10-H11=1.0979       C10-H12=1.0957       C10-C13=1.5421       
H11-C10=1.0979       H12-C10=1.0957       C13-C10=1.5421       C13-H14=1.0970       C13-H15=1.0989       C13-C16=1.5410       
H14-C13=1.0970       H15-C13=1.0989       C16-C13=1.5410       C16-H17=1.0972       C16-H18=1.0991       C16-C19=1.5409       
H17-C16=1.0972       H18-C16=1.0991       C19-C16=1.5409       C19-H20=1.0989       C19-H21=1.0970       C19-C22=1.5418       
H20-C19=1.0989       H21-C19=1.0970       C22-C8=1.5363        C22-C19=1.5418       C22-H23=1.0958       C22-H24=1.0974       
H23-C22=1.0958       H24-C22=1.0974       C25-P7=1.8527        C25-H26=1.0968       C25-C27=1.5339       C25-C39=1.5352       
H26-C25=1.0968       C27-C25=1.5339       C27-H28=1.0961       C27-H29=1.0984       C27-C30=1.5416       H28-C27=1.0961       
H29-C27=1.0984       C30-C27=1.5416       C30-H31=1.0989       C30-H32=1.0970       C30-C33=1.5412       H31-C30=1.0989       
H32-C30=1.0970       C33-C30=1.5412       C33-H34=1.0972       C33-H35=1.0991       C33-C36=1.5416       H34-C33=1.0972       
H35-C33=1.0991       C36-C33=1.5416       C36-H37=1.0970       C36-H38=1.0989       C36-C39=1.5430       H37-C36=1.0970       
H38-C36=1.0989       C39-C25=1.5352       C39-C36=1.5430       C39-H40=1.0961       C39-H41=1.0980       H40-C39=1.0961       
H41-C39=1.0980       C42-P7=1.8604        C42-H43=1.0966       C42-C44=1.5366       C42-C56=1.5384       H43-C42=1.0966       
C44-C42=1.5366       C44-H45=1.0969       C44-H46=1.0949       C44-C47=1.5401       H45-C44=1.0969       H46-C44=1.0949       
C47-C44=1.5401       C47-H48=1.0990       C47-H49=1.0969       C47-C50=1.5394       H48-C47=1.0990       H49-C47=1.0969       
C50-C47=1.5394       C50-H51=1.0974       C50-H52=1.0991       C50-C53=1.5400       H51-C50=1.0974       H52-C50=1.0991       
C53-C50=1.5400       C53-H54=1.0970       C53-H55=1.0990       C53-C56=1.5428       H54-C53=1.0970       H55-C53=1.0990       
C56-C42=1.5384       C56-C53=1.5428       C56-H57=1.0968       C56-H58=1.0981       H57-C56=1.0968       H58-C56=1.0981       
C59-H60=1.0700       C59-H61=1.0682       C59-Ru62=1.9586      H60-C59=1.0700       H61-C59=1.0682       Ru62-C59=1.9586      
Ru62-Cl63=2.3225     Ru62-Cl64=2.3076     Ru62-P65=2.2985      Cl63-Ru62=2.3225     Cl64-Ru62=2.3076     P65-Ru62=2.2985      
P65-C66=1.8749       P65-C83=1.8590       P65-C100=1.8588      C66-P65=1.8749       C66-H67=1.0969       C66-C68=1.5391       
C66-C80=1.5395       H67-C66=1.0969       C68-C66=1.5391       C68-H69=1.0977       C68-H70=1.0956       C68-C71=1.5428       
H69-C68=1.0977       H70-C68=1.0956       C71-C68=1.5428       C71-H72=1.0970       C71-H73=1.0990       C71-C74=1.5398       
H72-C71=1.0970       H73-C71=1.0990       C74-C71=1.5398       C74-H75=1.0975       C74-H76=1.0991       C74-C77=1.5392       
H75-C74=1.0975       H76-C74=1.0991       C77-C74=1.5392       C77-H78=1.0990       C77-H79=1.0969       C77-C80=1.5395       
H78-C77=1.0990       H79-C77=1.0969       C80-C66=1.5395       C80-C77=1.5395       C80-H81=1.0965       C80-H82=1.0975       
H81-C80=1.0965       H82-C80=1.0975       C83-P65=1.8590       C83-H84=1.0966       C83-C85=1.5352       C83-C97=1.5346       
H84-C83=1.0966       C85-C83=1.5352       C85-H86=1.0946       C85-H87=1.0973       C85-C88=1.5432       H86-C85=1.0946       
H87-C85=1.0973       C88-C85=1.5432       C88-H89=1.0990       C88-H90=1.0970       C88-C91=1.5412       H89-C88=1.0990       
H90-C88=1.0970       C91-C88=1.5412       C91-H92=1.0972       C91-H93=1.0991       C91-C94=1.5407       H92-C91=1.0972       
H93-C91=1.0991       C94-C91=1.5407       C94-H95=1.0969       C94-H96=1.0989       C94-C97=1.5412       H95-C94=1.0969       
H96-C94=1.0989       C97-C83=1.5346       C97-C94=1.5412       C97-H98=1.0967       C97-H99=1.0989       H98-C97=1.0967       
H99-C97=1.0989       C100-P65=1.8588      C100-H101=1.0963     C100-C102=1.5371     C100-C114=1.5353     H101-C100=1.0963     
C102-C100=1.5371     C102-H103=1.0978     C102-H104=1.0950     C102-C105=1.5417     H103-C102=1.0978     H104-C102=1.0950     
C105-C102=1.5417     C105-H106=1.0990     C105-H107=1.0970     C105-C108=1.5399     H106-C105=1.0990     H107-C105=1.0970     
C108-C105=1.5399     C108-H109=1.0972     C108-H110=1.0991     C108-C111=1.5401     H109-C108=1.0972     H110-C108=1.0991     
C111-C108=1.5401     C111-H112=1.0970     C111-H113=1.0989     C111-C114=1.5421     H112-C111=1.0970     H113-C111=1.0989     
C114-C100=1.5353     C114-C111=1.5421     C114-H115=1.0967     C114-H116=1.0971     H115-C114=1.0967     H116-C114=1.0971     
 C  H  Rav=1.0959 sigma=0.0066  Rmin=1.0682  Rmax=1.0991    70
 C  C  Rav=1.5396 sigma=0.0026  Rmin=1.5339  Rmax=1.5432    36
 P  C  Rav=1.8601 sigma=0.0071  Rmin=1.8527  Rmax=1.8749     6
 Ru C  Rav=1.9596 sigma=0.0011  Rmin=1.9586  Rmax=1.9607     2
 Ru P  Rav=2.3013 sigma=0.0028  Rmin=2.2985  Rmax=2.3040     2
 Ru Cl Rav=2.3153 sigma=0.0099  Rmin=2.3036  Rmax=2.3274     4
 
 selected bond angles (degree)
 --------------------
H3-C2-H1=110.02                Ru4-C2-H1=124.87               Ru4-C2-H3=125.09               Cl5-Ru4-C2=108.75              
Cl6-Ru4-C2= 99.64              Cl6-Ru4-Cl5=145.01             P7-Ru4-C2=107.00               P7-Ru4-Cl5= 94.53              
P7-Ru4-Cl6= 96.34              C8-P7-Ru4=114.53               C25-P7-Ru4=104.90              C25-P7-C8=110.15               
C42-P7-Ru4=105.81              C42-P7-C8=112.21               C42-P7-C25=108.82              H9-C8-P7=105.14                
C10-C8-P7=112.18               C10-C8-H9=108.24               C22-C8-P7=111.71               C22-C8-H9=108.68               
C22-C8-C10=110.64              H11-C10-C8=110.45              H12-C10-C8=109.15              H12-C10-H11=105.19             
C13-C10-C8=111.27              C13-C10-H11=110.91             C13-C10-H12=109.68             
 
 selected dihedral angles (degree)
 ---------------------------------
Cl5-Ru4-C2-H1= 85.64          Cl5-Ru4-C2-H3=267.33          Cl6-Ru4-C2-H1=286.38          Cl6-Ru4-C2-H3=108.08          
P7-Ru4-C2-H1=186.65           P7-Ru4-C2-H3=  8.35           C8-P7-Ru4-C2= 41.25           C8-P7-Ru4-Cl5=152.43          
C8-P7-Ru4-Cl6=299.12          C25-P7-Ru4-C2=280.36          C25-P7-Ru4-Cl5= 31.55         C25-P7-Ru4-Cl6=178.24         
C42-P7-Ru4-C2=165.38          C42-P7-Ru4-Cl5=276.57         C42-P7-Ru4-Cl6= 63.25         H9-C8-P7-Ru4=271.93           
H9-C8-P7-C25= 29.86           H9-C8-P7-C42=151.27           C10-C8-P7-Ru4= 29.34          C10-C8-P7-C25=147.28          
C10-C8-P7-C42=268.69          C22-C8-P7-Ru4=154.23          C22-C8-P7-C25=272.17          C22-C8-P7-C42= 33.58          
H11-C10-C8-P7=305.41          H11-C10-C8-H9= 60.96          H11-C10-C8-C22=179.94         H12-C10-C8-P7= 60.60          
H12-C10-C8-H9=176.15          H12-C10-C8-C22=295.12         C13-C10-C8-P7=181.78          C13-C10-C8-H9=297.33          
C13-C10-C8-C22= 56.31         
 
 CMA Distance (Angstroems)
 ---------------------------
R(CMA):  7.2124
           -------------------------------------------------
          |                Final Singlepoint                |
           -------------------------------------------------
         :::::::::::::::::::::::::::::::::::::::::::::::::::::
         ::                     SUMMARY                     ::
         :::::::::::::::::::::::::::::::::::::::::::::::::::::
         :: total energy             -16.814443090781 Eh    ::
         :: gradient norm              0.000789859654 Eh/a0 ::
         ::.................................................::
         :: bond energy              -17.654536846400 Eh    ::
         :: angle energy               0.066868873181 Eh    ::
         :: torsion energy             0.061455903309 Eh    ::
         :: repulsion energy           1.022729790333 Eh    ::
         :: electrostat energy        -0.144766614584 Eh    ::
         :: dispersion energy         -0.150007770464 Eh    ::
         :: HB energy                  0.000000000000 Eh    ::
         :: XB energy                  0.000000000000 Eh    ::
         :: bonded atm energy         -0.017495403545 Eh    ::
         :: external energy            0.000000000000 Eh    ::
         :: add. restraining           0.001308977389 Eh    ::
         :: total charge               0.000000000000 e     ::
         :::::::::::::::::::::::::::::::::::::::::::::::::::::

           -------------------------------------------------
          |                Property Printout                |
           -------------------------------------------------

molecular dipole:
                 x           y           z       tot (Debye)
 q only:        0.001       0.004       0.029       0.075
           -------------------------------------------------
          |                Geometry Summary                 |
           -------------------------------------------------

      molecular mass/u    :      932.8529713
   center of mass at/Å    :       -4.8737934       1.2354634       1.4198007
  moments of inertia/u·Å² :        0.6356211E+04   0.1806097E+05   0.1884463E+05
rotational constants/cm⁻¹ :        0.2652151E-02   0.9333737E-03   0.8945589E-03

 * 108 selected distances

     #   Z          #   Z                                           value/Å
     1   1 H        2   6 C                                       1.0702970
     2   6 C        3   1 H                                       1.0684684
     2   6 C        4  44 Ru                                      1.9607453
     4  44 Ru       5  17 Cl                                      2.3036116
     4  44 Ru       6  17 Cl                                      2.3274388 (max)
     4  44 Ru       7  15 P                                       2.3040404
     7  15 P        8   6 C                                       1.8548915
     8   6 C        9   1 H                                       1.0969313
     8   6 C       10   6 C                                       1.5362905
    10   6 C       11   1 H                                       1.0978720
    10   6 C       12   1 H                                       1.0957334
    10   6 C       13   6 C                                       1.5420638
    13   6 C       14   1 H                                       1.0970275
    13   6 C       15   1 H                                       1.0989218
    16   6 C       17   1 H                                       1.0971546
    16   6 C       18   1 H                                       1.0991321
    19   6 C       20   1 H                                       1.0989409
    19   6 C       21   1 H                                       1.0969859
     8   6 C       22   6 C                                       1.5363310
    19   6 C       22   6 C                                       1.5417621
    22   6 C       23   1 H                                       1.0957708
    22   6 C       24   1 H                                       1.0973694
     7  15 P       25   6 C                                       1.8526799
    25   6 C       26   1 H                                       1.0968254
    25   6 C       27   6 C                                       1.5338602
    27   6 C       28   1 H                                       1.0961241
    27   6 C       29   1 H                                       1.0983915
    27   6 C       30   6 C                                       1.5416464
    30   6 C       31   1 H                                       1.0989209
    30   6 C       32   1 H                                       1.0969783
    33   6 C       34   1 H                                       1.0971533
    33   6 C       35   1 H                                       1.0991232
    36   6 C       37   1 H                                       1.0969924
    36   6 C       38   1 H                                       1.0988628
    25   6 C       39   6 C                                       1.5352014
    36   6 C       39   6 C                                       1.5429719
    39   6 C       40   1 H                                       1.0961057
    39   6 C       41   1 H                                       1.0980143
     7  15 P       42   6 C                                       1.8603628
    42   6 C       43   1 H                                       1.0965673
    42   6 C       44   6 C                                       1.5365795
    44   6 C       45   1 H                                       1.0968828
    44   6 C       46   1 H                                       1.0948753
    44   6 C       47   6 C                                       1.5401384
    47   6 C       48   1 H                                       1.0989889
    47   6 C       49   1 H                                       1.0969169
    47   6 C       50   6 C                                       1.5393894
    50   6 C       51   1 H                                       1.0974484
    50   6 C       52   1 H                                       1.0990898
    53   6 C       54   1 H                                       1.0969583
    53   6 C       55   1 H                                       1.0989559
    42   6 C       56   6 C                                       1.5384397
    53   6 C       56   6 C                                       1.5427693
    56   6 C       57   1 H                                       1.0968285
    56   6 C       58   1 H                                       1.0980825
    59   6 C       60   1 H                                       1.0700474
    59   6 C       61   1 H                                       1.0682389 (min)
    59   6 C       62  44 Ru                                      1.9585545
    62  44 Ru      63  17 Cl                                      2.3225380
    62  44 Ru      64  17 Cl                                      2.3076201
    62  44 Ru      65  15 P                                       2.2984783
    65  15 P       66   6 C                                       1.8748640
    66   6 C       67   1 H                                       1.0968752
    66   6 C       68   6 C                                       1.5390881
    68   6 C       69   1 H                                       1.0976898
    68   6 C       70   1 H                                       1.0955517
    71   6 C       72   1 H                                       1.0969772
    71   6 C       73   1 H                                       1.0990286
    74   6 C       75   1 H                                       1.0974934
    74   6 C       76   1 H                                       1.0990772
    74   6 C       77   6 C                                       1.5391696
    77   6 C       78   1 H                                       1.0990127
    77   6 C       79   1 H                                       1.0968862
    66   6 C       80   6 C                                       1.5394505
    77   6 C       80   6 C                                       1.5395219
    80   6 C       81   1 H                                       1.0964899
    80   6 C       82   1 H                                       1.0975029
    65  15 P       83   6 C                                       1.8590080
    83   6 C       84   1 H                                       1.0965823
    83   6 C       85   6 C                                       1.5352104
    85   6 C       86   1 H                                       1.0945679
    85   6 C       87   1 H                                       1.0972705
    88   6 C       89   1 H                                       1.0989984
    88   6 C       90   1 H                                       1.0969833
    91   6 C       92   1 H                                       1.0972346
    91   6 C       93   1 H                                       1.0991164
    94   6 C       95   1 H                                       1.0969224
    94   6 C       96   1 H                                       1.0989061
    83   6 C       97   6 C                                       1.5345580
    94   6 C       97   6 C                                       1.5411537
    97   6 C       98   1 H                                       1.0967359
    97   6 C       99   1 H                                       1.0989029
    65  15 P      100   6 C                                       1.8587848
   100   6 C      101   1 H                                       1.0963424
   100   6 C      102   6 C                                       1.5371019
   102   6 C      103   1 H                                       1.0977837
   102   6 C      104   1 H                                       1.0949579
   102   6 C      105   6 C                                       1.5416656
   105   6 C      106   1 H                                       1.0990026
   105   6 C      107   1 H                                       1.0969911
   108   6 C      109   1 H                                       1.0972027
   108   6 C      110   1 H                                       1.0991050
   111   6 C      112   1 H                                       1.0970083
   111   6 C      113   1 H                                       1.0989163
   100   6 C      114   6 C                                       1.5353169
   111   6 C      114   6 C                                       1.5420712
   114   6 C      115   1 H                                       1.0967264
   114   6 C      116   1 H                                       1.0970529

 * 6 distinct bonds (by element types)

   Z      Z             #   av. dist./Å        max./Å        min./Å
   1 H    6 C          70     1.0958553     1.0991321     1.0682389
   6 C    6 C          24     1.5388230     1.5429719     1.5338602
   6 C   15 P           6     1.8600985     1.8748640     1.8526799
   6 C   44 Ru          2     1.9596499     1.9607453     1.9585545
  15 P   44 Ru          2     2.3012594     2.3040404     2.2984783
  17 Cl  44 Ru          4     2.3153021     2.3274388     2.3036116


optimized geometry written to: xtbopt.sdf


           -------------------------------------------------
          | TOTAL ENERGY              -16.814443090781 Eh   |
          | GRADIENT NORM               0.000789859654 Eh/α |
           -------------------------------------------------
########################################################################
[WARNING] Runtime exception occurred
-1- gfnff_setup: Could not read topology file.
########################################################################

------------------------------------------------------------------------
 * finished run on 2026/02/05 at 16:53:55.892     
------------------------------------------------------------------------
 total:
 * wall-time:     0 d,  0 h,  0 min,  0.173 sec
 *  cpu-time:     0 d,  0 h,  0 min,  2.182 sec
 * ratio c/w:    12.600 speedup
 SCF:
 * wall-time:     0 d,  0 h,  0 min,  0.010 sec
 *  cpu-time:     0 d,  0 h,  0 min,  0.091 sec
 * ratio c/w:     9.327 speedup
 ANC optimizer:
 * wall-time:     0 d,  0 h,  0 min,  0.106 sec
 *  cpu-time:     0 d,  0 h,  0 min,  1.622 sec
 * ratio c/w:    15.330 speedup

normal termination of xtb
2.04user 0.14system 0:00.17elapsed 1223%CPU (0avgtext+0avgdata 64956maxresident)k
0inputs+10560outputs (32major+9151minor)pagefaults 0swaps
