116
 energy: -16.645145381859 gnorm: 1.428717044126 xtb: 6.7.1 (edcfbbe)
H           -1.93110000000000        1.35530000000000       -0.59880000000000
C           -1.62550000000000        1.10300000000000        0.39510000000000
H           -0.58580000000000        1.31340000000000        0.52300000000000
Ru          -2.79860000000000        0.32630000000000        1.75730000000000
Cl          -2.82050000000000       -1.96160000000000        1.49400000000000
Cl          -4.07100000000000        2.20070000000000        2.29150000000000
P           -1.59150000000000        0.26650000000000        3.71980000000000
C           -0.57590000000000        1.78770000000000        4.03280000000000
H            0.38230000000000        1.60020000000000        3.53280000000000
C           -1.20670000000000        3.04230000000000        3.40980000000000
H           -1.38790000000000        2.88840000000000        2.33800000000000
H           -2.19780000000000        3.20210000000000        3.84860000000000
C           -0.32800000000000        4.28730000000000        3.64490000000000
H            0.62370000000000        4.16470000000000        3.11320000000000
H           -0.79560000000000        5.18050000000000        3.20770000000000
C           -0.05160000000000        4.49350000000000        5.14660000000000
H           -0.99390000000000        4.72200000000000        5.66010000000000
H            0.59070000000000        5.37070000000000        5.30810000000000
C            0.57660000000000        3.23320000000000        5.77220000000000
H            0.76100000000000        3.37900000000000        6.84570000000000
H            1.56340000000000        3.05880000000000        5.32590000000000
C           -0.31570000000000        1.99890000000000        5.53220000000000
H           -1.27370000000000        2.14180000000000        6.04450000000000
H            0.12100000000000        1.09920000000000        5.98400000000000
C           -0.48990000000000       -1.21350000000000        3.55300000000000
H           -1.16740000000000       -2.05550000000000        3.36560000000000
C            0.28870000000000       -1.48970000000000        4.84530000000000
H            0.95490000000000       -0.64170000000000        5.04190000000000
H           -0.39240000000000       -1.54260000000000        5.70550000000000
C            1.13150000000000       -2.77390000000000        4.71460000000000
H            1.68260000000000       -2.97630000000000        5.64360000000000
H            0.46330000000000       -3.63270000000000        4.57600000000000
C            2.09240000000000       -2.67540000000000        3.51360000000000
H            2.82340000000000       -1.87860000000000        3.69900000000000
H            2.68280000000000       -3.59680000000000        3.41100000000000
C            1.32560000000000       -2.36980000000000        2.21170000000000
H            0.67480000000000       -3.21780000000000        1.96560000000000
H            2.01820000000000       -2.27590000000000        1.36370000000000
C            0.46650000000000       -1.09670000000000        2.35780000000000
H            1.11760000000000       -0.22650000000000        2.50030000000000
H           -0.09710000000000       -0.89830000000000        1.43670000000000
C           -2.82600000000000       -0.04650000000000        5.07390000000000
H           -2.24290000000000       -0.10920000000000        6.00060000000000
C           -3.84730000000000        1.09470000000000        5.19950000000000
H           -3.34610000000000        2.05640000000000        5.36450000000000
H           -4.37160000000000        1.19720000000000        4.24370000000000
C           -4.88330000000000        0.81320000000000        6.30400000000000
H           -5.60050000000000        1.64160000000000        6.38850000000000
H           -4.37420000000000        0.76310000000000        7.27430000000000
C           -5.60810000000000       -0.51830000000000        6.03690000000000
H           -6.17440000000000       -0.44060000000000        5.10010000000000
H           -6.35540000000000       -0.72200000000000        6.81660000000000
C           -4.59710000000000       -1.67460000000000        5.92590000000000
H           -4.09430000000000       -1.81140000000000        6.89120000000000
H           -5.11270000000000       -2.62420000000000        5.72590000000000
C           -3.54150000000000       -1.38770000000000        4.83800000000000
H           -4.02570000000000       -1.36240000000000        3.85410000000000
H           -2.81200000000000       -2.20670000000000        4.78350000000000
C           -5.21590000000000        3.76160000000000       -1.09710000000000
H           -4.22590000000000        4.09860000000000       -0.87200000000000
H           -5.49990000000000        4.09410000000000       -2.07180000000000
Ru          -6.32830000000000        2.76180000000000        0.16370000000000
Cl          -5.48190000000000        0.60040000000000        0.08720000000000
Cl          -7.28120000000000        4.39110000000000        1.49080000000000
P           -8.23670000000000        1.97460000000000       -0.84800000000000
C           -8.93040000000000        0.71260000000000        0.35110000000000
H          -10.01910000000000        0.76900000000000        0.23010000000000
C           -8.48560000000000       -0.72330000000000        0.02190000000000
H           -8.78580000000000       -0.99270000000000       -0.99900000000000
H           -7.39080000000000       -0.76690000000000        0.03260000000000
C           -9.05110000000000       -1.74530000000000        1.02990000000000
H          -10.14340000000000       -1.78150000000000        0.93490000000000
H           -8.70210000000000       -2.75960000000000        0.79080000000000
C           -8.67750000000000       -1.36790000000000        2.47530000000000
H           -7.58770000000000       -1.42170000000000        2.59330000000000
H           -9.08760000000000       -2.09460000000000        3.19070000000000
C           -9.15460000000000        0.05800000000000        2.80430000000000
H           -8.89580000000000        0.33170000000000        3.83680000000000
H          -10.24960000000000        0.09750000000000        2.75340000000000
C           -8.56140000000000        1.06610000000000        1.80330000000000
H           -7.46930000000000        1.05120000000000        1.90040000000000
H           -8.86210000000000        2.09330000000000        2.04590000000000
C           -7.84020000000000        1.11630000000000       -2.44930000000000
H           -7.41780000000000        0.14820000000000       -2.15470000000000
C           -6.78450000000000        1.82690000000000       -3.30800000000000
H           -7.13770000000000        2.83110000000000       -3.56300000000000
H           -5.86300000000000        1.96570000000000       -2.72860000000000
C           -6.49170000000000        1.03650000000000       -4.60050000000000
H           -5.75430000000000        1.56620000000000       -5.21970000000000
H           -6.02180000000000        0.07980000000000       -4.34110000000000
C           -7.78310000000000        0.77090000000000       -5.39860000000000
H           -8.19240000000000        1.72530000000000       -5.75310000000000
H           -7.56890000000000        0.18880000000000       -6.30590000000000
C           -8.83540000000000        0.05830000000000       -4.52740000000000
H           -8.46270000000000       -0.93400000000000       -4.24510000000000
H           -9.75880000000000       -0.12350000000000       -5.09470000000000
C           -9.12500000000000        0.87520000000000       -3.25290000000000
H           -9.54720000000000        1.84570000000000       -3.54080000000000
H           -9.88930000000000        0.39350000000000       -2.62730000000000
C           -9.47910000000000        3.33310000000000       -1.10250000000000
H          -10.21320000000000        2.93560000000000       -1.81310000000000
C          -10.21610000000000        3.69090000000000        0.19800000000000
H          -10.71050000000000        2.80580000000000        0.61950000000000
H           -9.48090000000000        4.00370000000000        0.94660000000000
C          -11.23310000000000        4.82820000000000       -0.02300000000000
H          -11.74720000000000        5.07960000000000        0.91520000000000
H          -12.01960000000000        4.48370000000000       -0.70580000000000
C          -10.54520000000000        6.06900000000000       -0.62090000000000
H           -9.81690000000000        6.46080000000000        0.10030000000000
H          -11.26910000000000        6.88070000000000       -0.77950000000000
C           -9.82020000000000        5.71430000000000       -1.93230000000000
H          -10.55750000000000        5.40280000000000       -2.68260000000000
H           -9.32430000000000        6.59860000000000       -2.35630000000000
C           -8.80730000000000        4.57320000000000       -1.70950000000000
H           -8.01660000000000        4.91390000000000       -1.03010000000000
H           -8.29910000000000        4.31500000000000       -2.64700000000000
116
 energy: -16.745821031801 gnorm: 1.141692486432 xtb: 6.7.1 (edcfbbe)
H           -1.94806274120455        1.37859566046757       -0.61491193140379
C           -1.69886557690314        1.15858056647206        0.36575817947022
H           -0.61474360982984        1.32395618956016        0.52064432084527
Ru          -2.84422826175173        0.35718212554521        1.73905884265445
Cl          -2.83721748392457       -1.95095447152322        1.48641693521965
Cl          -4.09058576731898        2.20906906935552        2.29572179713850
P           -1.60009063943835        0.27556625278444        3.70626063537648
C           -0.57687486545877        1.78811825152889        4.03173877174675
H            0.38188801142575        1.60009892526961        3.53256206080111
C           -1.20652055892371        3.04282188794485        3.40969118001643
H           -1.38788737154583        2.88858992488551        2.33797075300486
H           -2.19776030839011        3.20222632689759        3.84856850657018
C           -0.32792576664014        4.28742764948387        3.64493789663666
H            0.62372069162892        4.16472888867817        3.11320749837486
H           -0.79556954072605        5.18056713981359        3.20771203443977
C           -0.05158939884517        4.49347861842271        5.14662106704586
H           -0.99389231456615        4.72198891947114        5.66009808123433
H            0.59070609091254        5.37067749210276        5.30813595360845
C            0.57653085656129        3.23304383889619        5.77214497220309
H            0.76099011941680        3.37892754967358        6.84566788495151
H            1.56337670552312        3.05876388409361        5.32587630811427
C           -0.31608120447232        1.99858325956900        5.53191500818593
H           -1.27377594091321        2.14175107300021        6.04451794924503
H            0.12090135305059        1.09908820666639        5.98386342856894
C           -0.49267925188507       -1.21006552686471        3.55206234762874
H           -1.16756404248747       -2.05481325360902        3.36540886226720
C            0.28786124563532       -1.48880209210089        4.84482659692241
H            0.95478327592553       -0.64156120741449        5.04190886337277
H           -0.39248107177007       -1.54243524260775        5.70549078030906
C            1.13123137154676       -2.77360450442695        4.71446117663571
H            1.68247069282976       -2.97615277635115        5.64349858197877
H            0.46325568889600       -3.63265447184658        4.57597996349573
C            2.09234404866913       -2.67537701573647        3.51361551439332
H            2.82340919292940       -1.87859922694202        3.69899512294892
H            2.68275756642115       -3.59679301104836        3.41101510108093
C            1.32549059638642       -2.36975038233282        2.21183178381571
H            0.67477288799576       -3.21782169842654        1.96562267327478
H            2.01814037880819       -2.27588260499097        1.36378244261052
C            0.46612531110815       -1.09657819068357        2.35787478848523
H            1.11754131990749       -0.22651607000828        2.50022002936267
H           -0.09696469999305       -0.89827927386164        1.43652410071948
C           -2.82573578573547       -0.04553196936399        5.07153857837704
H           -2.24199657709526       -0.10875637649822        5.99887573648196
C           -3.84748897282046        1.09466748750138        5.19949543911747
H           -3.34619279325856        2.05637202288323        5.36449143066193
H           -4.37176774343038        1.19732407152917        4.24375435029626
C           -4.88326767401697        0.81315126047462        6.30405244680350
H           -5.60048809134667        1.64157639573805        6.38852064159015
H           -4.37416986866311        0.76308944634614        7.27433659440648
C           -5.60807353836077       -0.51829705303293        6.03690694803057
H           -6.17439050921525       -0.44060286233568        5.10010471836698
H           -6.35538890473738       -0.72202073733733        6.81661691559534
C           -4.59701045803052       -1.67452353564402        5.92590086022153
H           -4.09424555483093       -1.81137258718303        6.89119547201915
H           -5.11264705559732       -2.62418506796852        5.72590024703714
C           -3.54147926703266       -1.38740853343280        4.83773410835931
H           -4.02581386783841       -1.36251856427470        3.85403044152126
H           -2.81199868127555       -2.20658087730068        4.78343623513855
C           -5.14137812357576        3.70579319751529       -1.06742738713876
H           -4.19535714264743        4.08489303684759       -0.87015313321453
H           -5.48348616332835        4.07332332356681       -2.05487668786760
Ru          -6.28533344213679        2.72998002975266        0.18405496864863
Cl          -5.47533339939487        0.58274325625549        0.09767594152583
Cl          -7.26495106943184        4.38008801074940        1.49912187463444
P           -8.22054753103889        1.97286656678498       -0.84548159268473
C           -8.92871527541201        0.71303208697954        0.35079297266889
H          -10.01812875628108        0.76997375172545        0.22920275495628
C           -8.48548176060737       -0.72332485635372        0.02199138232526
H           -8.78577677919856       -0.99266980913284       -0.99897510286038
H           -7.39076753210883       -0.76706012615894        0.03260044348764
C           -9.05115207811463       -1.74527772684010        1.02990887175369
H          -10.14341560138295       -1.78148146336112        0.93488713610917
H           -8.70212510308214       -2.75959732190478        0.79079821420091
C           -8.67751931484252       -1.36791237543084        2.47530310116801
H           -7.58771100519360       -1.42168882853288        2.59328565908025
H           -9.08758935354357       -2.09460365979758        3.19069082722488
C           -9.15464514714439        0.05797723154512        2.80429974138942
H           -8.89582818402334        0.33168967810794        3.83678738787166
H          -10.24962014793988        0.09749644382418        2.75338361141001
C           -8.56127594599076        1.06595412023365        1.80334834677269
H           -7.46924924706293        1.05119384022519        1.90057208718073
H           -8.86207598573593        2.09324174155461        2.04587720942586
C           -7.83894835639185        1.11598917767823       -2.44912517912295
H           -7.41738461392308        0.14775269854809       -2.15524138604671
C           -6.78423821738056        1.82674075058429       -3.30819561449910
H           -7.13768874734441        2.83099924635689       -3.56297105730537
H           -5.86289779424915        1.96568688997544       -2.72870949454862
C           -6.49170088316603        1.03648141432129       -4.60060094432984
H           -5.75429147034221        1.56619765226928       -5.21974589170530
H           -6.02179663719462        0.07979551479280       -4.34113165599573
C           -7.78313506863373        0.77091597113461       -5.39857901182481
H           -8.19239322811275        1.72528343211995       -5.75310044128272
H           -7.56892035536767        0.18878812030514       -6.30589860727604
C           -8.83541933632468        0.05838778612726       -4.52726189923782
H           -8.46271988178354       -0.93396746948636       -4.24508089556255
H           -9.75880091009661       -0.12346201380517       -5.09464977341178
C           -9.12491514948678        0.87543009783873       -3.25246761937840
H           -9.54714127604579        1.84575881280053       -3.54067356868053
H           -9.88927887919469        0.39354532490031       -2.62716257330487
C           -9.47511648986084        3.33055142202546       -1.10150486447781
H          -10.21145176005150        2.93457009092008       -1.81246896821323
C          -10.21542888564495        3.69051138793502        0.19779531331784
H          -10.71035882922983        2.80579955431739        0.61950881746758
H           -9.48090507306527        4.00370264124983        0.94678729408327
C          -11.23291702165161        4.82800751966075       -0.02315927245944
H          -11.74710358464552        5.07952211602064        0.91513044086267
H          -12.01955663360175        4.48365631313030       -0.70583245399183
C          -10.54518405467639        6.06898395808485       -0.62089783758049
H           -9.81690351263761        6.46079716764962        0.10029029164189
H          -11.26910140635087        6.88067939047164       -0.77949596330192
C           -9.82024339091599        5.71411335490688       -1.93224916813779
H          -10.55750286134554        5.40275315062489       -2.68256973850291
H           -9.32432971095488        6.59850393578542       -2.35627274028431
C           -8.80712394841279        4.57288302275331       -1.70927918915696
H           -8.01649436728271        4.91404245994412       -1.03019186618709
H           -8.29902522089283        4.31509575984281       -2.64695113701297
116
 energy: -16.812411705245 gnorm: 0.130871959614 xtb: 6.7.1 (edcfbbe)
H           -1.97262659058765        1.40840183070501       -0.62242088897837
C           -1.68908025990993        1.13796655333788        0.36227145851622
H           -0.63329224609794        1.33771453048142        0.52407097253551
Ru          -2.83396265434309        0.34586641542687        1.74702361523958
Cl          -2.85380642919747       -1.93880078553073        1.47316650248264
Cl          -4.11007255423552        2.21564479190170        2.30344343120971
P           -1.61021960379488        0.28117645667806        3.69220127643157
C           -0.57849189049490        1.78840003628714        4.03028297808920
H            0.38054836371200        1.59984754223962        3.53171918788092
C           -1.20666498790560        3.04365467057113        3.40926461581311
H           -1.38804357963651        2.88940469286085        2.33761723876402
H           -2.19787538840468        3.20286419860891        3.84832347214795
C           -0.32777643191149        4.28774559130836        3.64494032370751
H            0.62382935068496        4.16485917918715        3.11321703412307
H           -0.79535818660213        5.18091715459732        3.20777356353340
C           -0.05158568175216        4.49340162328097        5.14664974119163
H           -0.99389024948146        4.72195082908665        5.66008998272869
H            0.59077564640340        5.37053358043683        5.30831710072983
C            0.57620919015744        3.23260857529219        5.77185606089464
H            0.76077954740143        3.37848813819007        6.84543594157053
H            1.56316869123524        3.05851985956252        5.32571454714675
C           -0.31686853999616        1.99813768501417        5.53106543384536
H           -1.27410587033984        2.14151545560967        6.04434986700970
H            0.12040678867059        1.09875960390383        5.98307831931248
C           -0.49560401554875       -1.20652564378154        3.55064489849056
H           -1.16869240280833       -2.05278945473445        3.36456619250689
C            0.28620084667859       -1.48718449644145        4.84373018099690
H            0.95399633107917       -0.64087698479894        5.04156549752060
H           -0.39314190727513       -1.54160382743447        5.70504439193280
C            1.13025651552212       -2.77257755390926        4.71401613553987
H            1.68169195914391       -2.97525898376322        5.64309350692953
H            0.46285504587190       -3.63216869147601        4.57580399439899
C            2.09193822371403       -2.67506318722454        3.51362657720128
H            2.82327265685137       -1.87849507484401        3.69896683910397
H            2.68230188877713       -3.59664523090414        3.41113796004429
C            1.32489541063480       -2.36939835725938        2.21204956852516
H            0.67452072043001       -3.21773149652304        1.96574987742345
H            2.01777953904676       -2.27573788458416        1.36407924558025
C            0.46517024097448       -1.09589574699295        2.35757074276613
H            1.11719051177205       -0.22631732948255        2.49992272108251
H           -0.09698267766321       -0.89774481996878        1.43574417054102
C           -2.82596418858328       -0.04437837265079        5.06841045413527
H           -2.24024918927019       -0.10759056521449        5.99466120295596
C           -3.84789668764542        1.09493000867444        5.19914422800545
H           -3.34648016571708        2.05650222526122        5.36436403415284
H           -4.37256426553807        1.19794990055000        4.24378793375902
C           -4.88317492340597        0.81307735963587        6.30409618417692
H           -5.60045476824070        1.64146685801387        6.38865806004169
H           -4.37398943041588        0.76303740710748        7.27434533979338
C           -5.60800173734077       -0.51828417495825        6.03690565250592
H           -6.17436679840087       -0.44058726297481        5.10012523249586
H           -6.35528899964078       -0.72209755958197        6.81665416426523
C           -4.59673895995520       -1.67426149188084        5.92573292723491
H           -4.09395544593136       -1.81116722252001        6.89103288571126
H           -5.11238618663630       -2.62402404996608        5.72586870701624
C           -3.54151250799118       -1.38692410245522        4.83699496122111
H           -4.02620953078273       -1.36292685795615        3.85359744404766
H           -2.81193238239932       -2.20607229807487        4.78310814440347
C           -5.15230835924607        3.72701770179646       -1.06297693508777
H           -4.16428370962079        4.05874399878509       -0.86666632788275
H           -5.47285629259212        4.05228827832771       -2.04931117342652
Ru          -6.29822953232682        2.73710474448783        0.18169069993343
Cl          -5.47260543278640        0.56505872500936        0.10802701916923
Cl          -7.24302446375313        4.37152913556877        1.50646895593269
P           -8.20576521637142        1.97287746202776       -0.84005375186988
C           -8.92632995162328        0.71334670355894        0.35074065419121
H          -10.01558929313179        0.77200967046293        0.22738395128540
C           -8.48501550329665       -0.72343955523355        0.02208106840936
H           -8.78562897300593       -0.99254665463664       -0.99889767751394
H           -7.39043461386084       -0.76774500755288        0.03256226787964
C           -9.05119055394727       -1.74521792602667        1.02991941841858
H          -10.14344432373555       -1.78134218265284        0.93481394663548
H           -8.70223402435984       -2.75958261295200        0.79082122555723
C           -8.67755069837314       -1.36794801144602        2.47531259288819
H           -7.58773612580354       -1.42167632451598        2.59326528748458
H           -9.08758919882845       -2.09464673677352        3.19067568127563
C           -9.15470189807552        0.05790821878624        2.80429391844977
H           -8.89596003282732        0.33161254896005        3.83679321626792
H          -10.24966517378867        0.09750908682493        2.75326285736044
C           -8.56085082905243        1.06581430316062        1.80360248775809
H           -7.46898705723874        1.05113398651137        1.90140639648412
H           -8.86191519584967        2.09311166445394        2.04586178766356
C           -7.83727852752815        1.11562236110019       -2.44843795927774
H           -7.41617664784481        0.14678403069242       -2.15613446027926
C           -6.78366814630981        1.82657268011358       -3.30828093844422
H           -7.13758220570535        2.83076570661154       -3.56284043880093
H           -5.86232856516611        1.96574865341031       -2.72905485112106
C           -6.49160625129893        1.03642704005827       -4.60076310733177
H           -5.75424821626607        1.56615534578006       -5.21994015664242
H           -6.02173581444123        0.07973828039902       -4.34129393441986
C           -7.78318327664254        0.77094912763428       -5.39847898955150
H           -8.19238051155850        1.72528796229491       -5.75306726022187
H           -7.56906780365363        0.18874232280791       -6.30581689232399
C           -8.83537751984270        0.05866053752762       -4.52680838790691
H           -8.46275279365536       -0.93381926418776       -4.24493839578028
H           -9.75880236825447       -0.12318363230901       -5.09424715516931
C           -9.12431242469372        0.87575835147648       -3.25156111977934
H           -9.54665913076013        1.84595846831027       -3.54001438260105
H           -9.88890866805188        0.39377892643260       -2.62660153401611
C           -9.47021162278989        3.32811239736684       -1.09985142643365
H          -10.20673677387028        2.93186594408401       -1.81079496472207
C          -10.21389925567852        3.68976588364547        0.19775377968810
H          -10.70957941640484        2.80556330213798        0.61951585632288
H           -9.48058159815266        4.00360767563406        0.94750188139857
C          -11.23214993028451        4.82732349420391       -0.02350461322403
H          -11.74655869937179        5.07902680592916        0.91477978648385
H          -12.01907476061284        4.48323039544081       -0.70601452919445
C          -10.54499144988563        6.06870159574844       -0.62090345162498
H           -9.81684331950776        6.46072422354601        0.10027987569804
H          -11.26906493695374        6.88034795528793       -0.77955627021573
C           -9.82002782278955        5.71337518411070       -1.93201879482383
H          -10.55735360427464        5.40224830348476       -2.68237667925617
H           -9.32437303477710        6.59797910217511       -2.35613802212032
C           -8.80610797898628        4.57221818679853       -1.70876527543305
H           -8.01561700903471        4.91440178725434       -1.03029477987694
H           -8.29844261447345        4.31512640188915       -2.64676180839309
116
 energy: -16.813233546683 gnorm: 0.150951659747 xtb: 6.7.1 (edcfbbe)
H           -1.97369310282038        1.40337880793699       -0.62583588114212
C           -1.68798310431174        1.13316663352215        0.36812731636202
H           -0.64509436896457        1.33783397714599        0.52617204986592
Ru          -2.84054478432260        0.34487743289294        1.74250763639155
Cl          -2.85477481437803       -1.94468174970770        1.46773037646841
Cl          -4.11727518626597        2.20448836265996        2.30385779229706
P           -1.60962189915680        0.28077122617381        3.69406871807483
C           -0.58031084772329        1.78924366985877        4.02784142853104
H            0.37823249257171        1.59998322657170        3.52879616932075
C           -1.20835038359889        3.04563403063022        3.40737661982979
H           -1.39046797899513        2.89278655037349        2.33545028222622
H           -2.19940329970498        3.20512844350166        3.84685867820960
C           -0.32819303123942        4.28914526949487        3.64418285658415
H            0.62357409642369        4.16549632470837        3.11296132851773
H           -0.79398433276412        5.18353125910794        3.20706405342881
C           -0.05205277174868        4.49284548086585        5.14645990468583
H           -0.99409053966011        4.72216631618854        5.66020017053288
H            0.59114162413549        5.36914790820460        5.30892456817189
C            0.57517310895189        3.23099520264473        5.77080171881479
H            0.76006743959214        3.37561184458011        6.84453070050843
H            1.56221702651641        3.05746373732558        5.32464474659176
C           -0.31827238419487        1.99699476234874        5.52892803104080
H           -1.27518479778717        2.14057374181798        6.04249344759512
H            0.11772073717069        1.09661436939300        5.98044951272093
C           -0.49750530799429       -1.20495795464876        3.54761259551896
H           -1.17184271651037       -2.04972139966629        3.36113376534655
C            0.28259332804564       -1.48432218080068        4.84098586425439
H            0.95044510315189       -0.63824224753129        5.03872152686867
H           -0.39748460642301       -1.53806519785084        5.70148692562473
C            1.12623698861615       -2.76938404857725        4.71234812379024
H            1.67754325706625       -2.97053865239729        5.64150530296041
H            0.45897631689945       -3.62921525223578        4.57498204200391