
                                 *****************
                                 * O   R   C   A *
                                 *****************

                                            #,                                       
                                            ###                                      
                                            ####                                     
                                            #####                                    
                                            ######                                   
                                           ########,                                 
                                     ,,################,,,,,                         
                               ,,#################################,,                 
                          ,,##########################################,,             
                       ,#########################################, ''#####,          
                    ,#############################################,,   '####,        
                  ,##################################################,,,,####,       
                ,###########''''           ''''###############################       
              ,#####''   ,,,,##########,,,,          '''####'''          '####       
            ,##' ,,,,###########################,,,                        '##       
           ' ,,###''''                  '''############,,,                           
         ,,##''                                '''############,,,,        ,,,,,,###''
      ,#''                                            '''#######################'''  
     '                                                          ''''####''''         
             ,#######,   #######,   ,#######,      ##                                
            ,#'     '#,  ##    ##  ,#'     '#,    #''#        ,####,   ,####,        
            ##       ##  ##   ,#'  ##            #'  '#       #'       #'  '#        
            ##       ##  #######   ##           ,######,      #####,   #    #        
            '#,     ,#'  ##    ##  '#,     ,#' ,#      #,     #,   #   #,  ,#        
             '#######'   ##     ##  '#######'  #'      '#     '####' # '####'        



                #########################################################
                #                        -***-                          #
                #          Department of theory and spectroscopy        #
                #                                                       #
                #                      Frank Neese                      #
                #                                                       #
                #     Directorship, Architecture, Infrastructure        #
                #                    SHARK, DRIVERS                     #
                #        Core code/Algorithms in most modules           #
                #                                                       #
                #        Max Planck Institute fuer Kohlenforschung      #
                #                Kaiser Wilhelm Platz 1                 #
                #                 D-45470 Muelheim/Ruhr                 #
                #                      Germany                          #
                #                                                       #
                #                  All rights reserved                  #
                #                        -***-                          #
                #########################################################


                         Program Version 6.0.1  -  RELEASE   -


 With contributions from (in alphabetic order):
[Max-Planck-Institut fuer Kohlenforschung]                               
  Daniel Aravena         : Magnetic Suceptibility                        
  Michael Atanasov       : Ab Initio Ligand Field Theory (pilot matlab implementation)
  Alexander A. Auer      : GIAO ZORA, VPT2 properties, NMR spectrum      
  Ute Becker             : All parallelization in ORCA, NUMFREQ, NUMCALC 
  Giovanni Bistoni       : ED, misc. LED, open-shell LED, HFLD           
  Martin Brehm           : Molecular dynamics                            
  Dmytro Bykov           : pre 5.0 version of the SCF Hessian            
  Marcos Casanova-Páez   : Triplet and SCS-CIS(D). UHF-(DLPNO)-IP/EA/STEOM-CCSD. UHF-CVS-IP/STEOM-CCSD   
  Vijay G. Chilkuri      : MRCI spin determinant printing, contributions to CSF-ICE 
  Pauline Colinet        : FMM embedding                                 
  Dipayan Datta          : RHF DLPNO-CCSD density                        
  Achintya Kumar Dutta   : EOM-CC, STEOM-CC                              
  Nicolas Foglia         : Exact transition moments, OPA infrastructure, MCD improvements    
  Dmitry Ganyushin       : Spin-Orbit,Spin-Spin,Magnetic field MRCI      
  Miquel Garcia-Rates    : C-PCM and meta-GGA Hessian, CCSD/C-PCM, Gaussian charge scheme 
  Tiago L. C. Gouveia    : GS-ROHF, GS-ROCIS                             
  Yang Guo               : DLPNO-NEVPT2, F12-NEVPT2, CIM, IAO-localization        
  Andreas Hansen         : Spin unrestricted coupled pair/coupled cluster methods 
  Ingolf Harden          : AUTO-CI MPn and infrastructure                
  Benjamin Helmich-Paris : MC-RPA, TRAH-(SCF,CASSCF), AVAS, COSX integrals, SCF dyn. polar. 
  Lee Huntington         : MR-EOM, pCC                                   
  Robert Izsak           : Overlap fitted RIJCOSX, COSX-SCS-MP3, EOM     
  Riya Kayal             : Wick's Theorem for AUTO-CI, AUTO-CI UHF-CCSDT 
  Emily Kempfer          : AUTO-CI, RHF CISDT and CCSDT                  
  Christian Kollmar      : KDIIS, OOCD, Brueckner-CCSD(T), CCSD density, CASPT2, CASPT2-K, improved NEVPT2 
  Axel Koslowski         : Symmetry handling                             
  Simone Kossmann        : meta-GGA functionals, TD-DFT gradient, OOMP2, (MP2 Hessian; deprecated post 5.0) 
  Lucas Lang             : DCDCAS                                        
  Marvin Lechner         : AUTO-CI (C++ implementation), FIC-MRCC        
  Spencer Leger          : CASSCF response                               
  Dagmar Lenk            : GEPOL surface, SMD, ORCA-2-JSON               
  Dimitrios Liakos       : Extrapolation schemes; Compound Job, initial MDCI parallelization 
  Dimitrios Manganas     : Further ROCIS development; embedding schemes. LFT, Crystal Embedding 
  Dimitrios Pantazis     : SARC Basis sets                               
  Anastasios Papadopoulos: AUTO-CI, single reference methods and gradients 
  Taras Petrenko         : pre 6.0 DFT Hessian and TD-DFT gradient, (ASA, deprecated), ECA, 1-Electron XAS/XES, NRVS 
  Peter Pinski           : DLPNO-MP2, DLPNO-MP2 Gradient                 
  Christoph Reimann      : Effective Core Potentials                     
  Marius Retegan         : Local ZFS, SOC                                
  Christoph Riplinger    : Optimizer, TS searches, QM/MM, DLPNO-CCSD(T), (RO)-DLPNO pert. Triples 
  Michael Roemelt        : Original ROCIS implementation                 
  Masaaki Saitow         : Open-shell DLPNO-CCSD energy and density      
  Barbara Sandhoefer     : DKH picture change effects                    
  Kantharuban Sivalingam : CASSCF convergence/infrastructure, NEVPT2 and variants, FIC-MRCI 
  Bernardo de Souza      : ESD, SOC TD-DFT                               
  Georgi L. Stoychev     : AutoAux, RI-MP2 NMR, DLPNO-MP2 response, X2C  
  Van Anh Tran           : RI-MP2 g-tensors                              
  Willem Van den Heuvel  : Paramagnetic NMR                              
  Zikuan Wang            : NOTCH, Electric field optimization            
  Frank Wennmohs         : Technical directorship and infrastructure     
  Hang Xu                : AUTO-CI-Response properties                   
                                                                         
[FACCTs GmbH]                                                            
  Markus Bursch, Miquel Garcia-Rates, Christoph Riplinger, Bernardo de Souza, Georgi L. Stoychev 
                                                                 
  APM, Basis sets (HGBS, AHGBS, def-TZVP (Ac-Lr), def2-XVPD (La-Lu)), CI-OPT, improved COSX, DLPNO-Multilevel,           
  DOCKER, DRACO, updates on ESD, GOAT, IRC, LR-CPCM, MBIS, meta-GGA TD-DFT gradient, ML-optimized integration grids, 
  MM, NACMEs, nearIR, NEB, NEB-TS, NL-DFT gradient (VV10), 2- and 3-layer-ONIOM, interface openCOSMO-RS, QMMM,   
  Crystal-QMMM, SF, symmetry and pop. for TD-DFT, r2SCAN hybrids, SOLVATOR                                   
                                                                         
[Other institutions]                                                     
  V. Asgeirsson          : NEB                                           
  Christoph Bannwarth    : sTDA-DFT, sTD-DFT, PBEh-3c, B97-3c, D3        
  Sebastian Ehlert       : rSCAN, r2SCAN, r2SCAN-3c, D4, dhf basis sets  
  Marvin Friede          : D4 for Fr, Ra, Ac-Lr                          
  Lars Goerigk           : TD-DFT with DH, B97 family of functionals     
  Stefan Grimme          : VdW corrections, initial TS optimization, DFT functionals, gCP, sTDA/sTD-DF 
  Waldemar Hujo          : DFT-NL                                        
  H. Jonsson             : NEB                                           
  Holger Kruse           : gCP                                           
  Marcel Mueller         : wB97X-3c, vDZP basis set                      
  Hagen Neugebauer       : wr2SCAN                                       
  Tobias Risthaus        : range-separated hybrid DFT                    
  Lukas Wittmann         : regularized MP2, r2SCAN double-hybrids, wr2SCAN        
                                                                         
We gratefully acknowledge several colleagues who have allowed us to      
interface, adapt or use parts of their codes:                            
  Ed Valeev, F. Pavosevic, A. Kumar             : LibInt (2-el integral package), F12 methods 
  Garnet Chan, S. Sharma, J. Yang, R. Olivares  : DMRG                   
  Ulf Ekstrom                                   : XCFun DFT Library      
  Mihaly Kallay                                 : mrcc  (arbitrary order and MRCC methods)
  Frank Weinhold                                : gennbo (NPA and NBO analysis)           
  Simon Mueller                                 : openCOSMO-RS                            
  Christopher J. Cramer and Donald G. Truhlar   : smd solvation model                     
  S Lehtola, MJT Oliveira, MAL Marques          : LibXC Library                           
  Liviu Ungur et al                             : ANISO software                          


 Your calculation uses the libint2 library for the computation of 2-el integrals
 For citations please refer to: http://libint.valeyev.net

 Your ORCA version has been built with support for libXC version: 6.2.2
 For citations please refer to: https://libxc.gitlab.io

 This ORCA versions uses:
   CBLAS   interface :  Fast vector & matrix operations
   LAPACKE interface :  Fast linear algebra routines
   SCALAPACK package :  Parallel linear algebra routines
   Shared memory     :  Shared parallel matrices
   BLAS/LAPACK       :  OpenBLAS 0.3.27  USE64BITINT DYNAMIC_ARCH NO_AFFINITY SkylakeX SINGLE_THREADED
        Core in use  :  SkylakeX
   Copyright (c) 2011-2014, The OpenBLAS Project


NOTE: MaxCore=1400 MB was set to SCF,MP2,MDCI,CIPSI,MRCI and CIS
      => If you want to overwrite this, your respective input block should be placed after the MaxCore statement
Your calculation utilizes the geometrical counterpoise correction gCP
Please cite in your paper:
H.Kruse, S. Grimme J.Chem.Phys., 136, (2012), 154101 
   

Your calculation utilizes the atom-pairwise dispersion correction
based on EEQ partial charges (D4)


================================================================================

cite the ECPs for Ru [Def2-ECP] as follows:
Ce-Yb(ecp-28): M. Dolg, H. Stoll, H.Preuss, J. Chem. Phys., 1989, 90, 1730-1734.
Y-Cd(ecp-28), Hf-Hg(ecp-46): D. Andrae,U. Haeussermann, M. Dolg, H. Stoll, H. Preuss, Theor. Chim. Acta, 1990, 77, 123-141.
In-Sb(ecp-28), Tl-Bi(ecp-46): B. Metz, H. Stoll, M. Dolg, J. Chem. Phys., 2000, 113, 2563-2569.
Te-Xe(ecp-28), Po-Rn(ecp-46): K. A. Peterson, D. Figgen, E. Goll, H. Stoll, M. Dolg, J. Chem. Phys., 2003, 119, 11113-11123.
Rb(ecp-28), Cs(ecp-46): T. Leininger, A. Nicklass, W. Kuechle, H. Stoll, M. Dolg, A. Bergner, Chem. Phys. Lett., 1996, 255, 274-280.
Sr(ecp-28), Ba(ecp-46): M. Kaupp, P. V. Schleyer, H. Stoll and H. Preuss, J. Chem. Phys., 1991, 94, 1360-1366.
La(ecp-46): M. Dolg, H. Stoll, A. Savin, H. Preuss, Theor. Chim. Acta, 1989, 75, 173-194.
Lu(ecp-28): X. Cao, M. Dolg, J. Chem. Phys., 2001, 115, 7348-7355.
Fr-Lr(ecp-60) K. Eichkorn, F. Weigend, O. Treutler, R. Ahlrichs, Theor. Chem. Acc. 1997, 97, 119.

ECP parameters for Ru [Def2-ECP] have been obtained from:
TURBOMOLE (7.0.2)

----- Orbital basis set information -----
Your calculation utilizes the basis: def2-mTZVPP
   Stefan Grimme, Andreas Hansen, Sebastian Ehlert, and Jan-Michael Mewes 
   J. Chem. Phys. 154, 064103 (2021). DOI: 10.1063/5.0040021

----- AuxJ basis set information -----
Your calculation utilizes the basis: def2-mTZVPP/J
   Stefan Grimme, Andreas Hansen, Sebastian Ehlert, and Jan-Michael Mewes 
   J. Chem. Phys. 154, 000000 (2021). DOI: 10.1063/5.0040021

================================================================================
                                        WARNINGS
                       Please study these warnings very carefully!
================================================================================



WARNING: SCAN, rSCAN, or r2SCAN functional requested.
  ===> : libXC variant has now been activated.



================================================================================
                                       INPUT FILE
================================================================================
NAME = cli47.inp
|  1> %maxcore 1400
|  2> %pal nprocs 20 end
|  3> ! RKS r2scan-3c Opt MOREAD
|  4> %geom
|  5>   maxiter 10
|  6> end
|  7> %scf
|  8>   maxiter 500
|  9> end
| 10> %moinp "restart.gbw"
| 11> * xyz 0 1
| 12>     Ru -1.05468900 0.04474400 -0.00424189
| 13>      O 0.97293300 -0.81098700 -0.60648000
| 14>      C 0.05701700 1.46062300 0.42297400
| 15>      H -0.28710400 2.40171600 0.85802500
| 16>      C 1.34418900 -2.18607500 -0.99722000
| 17>      H 2.04957500 -2.08309600 -1.83148900
| 18>      C 1.97445200 -2.89994700 0.18446900
| 19>      H 2.83742000 -2.35794800 0.58029300
| 20>      H 2.31013500 -3.89211800 -0.13464700
| 21>      H 1.23819400 -3.01252900 0.98482000
| 22>      C 0.08168900 -2.85668900 -1.49317400
| 23>      H -0.64901100 -2.95473700 -0.68334600
| 24>      H 0.33633200 -3.86235800 -1.84206900
| 25>      H -0.36264200 -2.29948500 -2.32108200
| 26>      C 1.93952100 0.13271900 -0.41414500
| 27>      C 3.28299500 -0.01713300 -0.73333800
| 28>      H 3.66669100 -0.93643600 -1.15776100
| 29>      C 4.15194100 1.04660700 -0.49796200
| 30>      H 5.20174800 0.92947300 -0.75006100
| 31>      C 3.69989200 2.24655000 0.05096300
| 32>      H 4.39408600 3.06160200 0.22734200
| 33>      C 2.35972600 2.39025800 0.36530300
| 34>      H 1.98506700 3.31808900 0.78894600
| 35>      C 1.45363000 1.33919200 0.13853700
| 36>     Cl -1.50080800 0.34851600 -2.25875900
| 37>     Cl -1.03176100 -1.36754700 1.84078400
| 38>      C -2.53577400 0.93095000 0.52899700
| 39>      O -3.47354500 1.51374500 0.85792000
| 40> *
| 41> 
| 42>                          ****END OF INPUT****
================================================================================

                       *****************************
                       * Geometry Optimization Run *
                       *****************************

Geometry optimization settings:
Update method            Update   .... BFGS
Choice of coordinates    CoordSys .... (2022) Redundant Internals
Initial Hessian          InHess   .... Almloef's Model
Max. no of cycles        MaxIter  .... 10

Convergence Tolerances:
Energy Change            TolE     ....  5.0000e-06 Eh
Max. Gradient            TolMAXG  ....  3.0000e-04 Eh/bohr
RMS Gradient             TolRMSG  ....  1.0000e-04 Eh/bohr
Max. Displacement        TolMAXD  ....  4.0000e-03 bohr
RMS Displacement         TolRMSD  ....  2.0000e-03 bohr
Strict Convergence                .... False

------------------------------------------------------------------------------
                        ORCA OPTIMIZATION COORDINATE SETUP
------------------------------------------------------------------------------

The optimization will be done in redundant internal coordinates (2022)
Making redundant internal coordinates   ...  (2022 redundants) done
Evaluating the initial hessian          ...  (Almloef) done
Evaluating the coordinates              ...  done
Calculating the B-matrix                .... done
Calculating the G-matrix                .... done
Diagonalizing the G-matrix              .... done
Small eigenvalue found = 1.395e-02
Small eigenvalue found = 2.968e-02
The first mode is                       ....   68
The number of degrees of freedom        ....   78

    -----------------------------------------------------------------
                    Redundant Internal Coordinates


    -----------------------------------------------------------------
         Definition                    Initial Value    Approx d2E/dq
    -----------------------------------------------------------------
      1. B(O   1,Ru  0)                  2.2817         0.213958   
      2. B(C   2,Ru  0)                  1.8502         1.165995   
      3. B(H   3,C   2)                  1.0924         0.356935   
      4. B(C   4,O   1)                  1.4769         0.406589   
      5. B(H   5,C   4)                  1.0974         0.350506   
      6. B(C   6,C   4)                  1.5176         0.390927   
      7. B(H   7,C   6)                  1.0932         0.355851   
      8. B(H   8,C   6)                  1.0950         0.353607   
      9. B(H   9,C   6)                  1.0933         0.355756   
     10. B(C  10,C   4)                  1.5131         0.397441   
     11. B(H  11,C  10)                  1.0952         0.353349   
     12. B(H  12,C  10)                  1.0945         0.354190   
     13. B(H  13,C  10)                  1.0924         0.356939   
     14. B(C  14,O   1)                  1.3645         0.614548   
     15. B(C  15,C  14)                  1.3890         0.627145   
     16. B(H  16,C  15)                  1.0828         0.369739   
     17. B(C  17,C  15)                  1.3936         0.616677   
     18. B(H  18,C  17)                  1.0860         0.365447   
     19. B(C  19,C  17)                  1.3948         0.613825   
     20. B(H  20,C  19)                  1.0850         0.366714   
     21. B(C  21,C  19)                  1.3840         0.638678   
     22. B(H  22,C  21)                  1.0866         0.364618   
     23. B(C  23,C  21)                  1.4061         0.588872   
     24. B(C  23,C  14)                  1.4132         0.573760   
     25. B(C  23,C   2)                  1.4304         0.538528   
     26. B(Cl 24,Ru  0)                  2.3182         0.468751   
     27. B(Cl 25,Ru  0)                  2.3236         0.459544   
     28. B(C  26,Ru  0)                  1.8065         1.369050   
     29. B(O  27,C  26)                  1.1521         1.341173   
     30. A(C   2,Ru  0,Cl 25)          106.0129         0.605740   
     31. A(O   1,Ru  0,Cl 25)           88.4449         0.438998   
     32. A(O   1,Ru  0,C  26)          172.0851         0.519284   
     33. A(O   1,Ru  0,C   2)           79.2804         0.503930   
     34. A(Cl 24,Ru  0,C  26)           93.7275         0.627273   
     35. A(C   2,Ru  0,C  26)           92.8119         0.724276   
     36. A(Cl 24,Ru  0,Cl 25)          148.6223         0.526837   
     37. A(C   2,Ru  0,Cl 24)          103.8815         0.608065   
     38. A(O   1,Ru  0,Cl 24)           87.9063         0.440572   
     39. A(Cl 25,Ru  0,C  26)           94.1217         0.624862   
     40. A(Ru  0,O   1,C  14)          109.4455         0.397232   
     41. A(Ru  0,O   1,C   4)          129.9692         0.369720   
     42. A(C   4,O   1,C  14)          120.2080         0.396882   
     43. A(H   3,C   2,C  23)          117.3796         0.344116   
     44. A(Ru  0,C   2,C  23)          118.4100         0.534342   
     45. A(Ru  0,C   2,H   3)          124.1908         0.439935   
     46. A(C   6,C   4,C  10)          113.1562         0.370098   
     47. A(H   5,C   4,C  10)          109.1921         0.326186   
     48. A(O   1,C   4,C   6)          109.6539         0.369224   
     49. A(O   1,C   4,C  10)          106.8347         0.370275   
     50. A(O   1,C   4,H   5)          105.9824         0.325449   
     51. A(H   5,C   4,C   6)          111.6634         0.325301   
     52. A(C   4,C   6,H   7)          112.1192         0.326112   
     53. A(H   8,C   6,H   9)          109.0562         0.289459   
     54. A(H   7,C   6,H   9)          108.5170         0.289746   
     55. A(C   4,C   6,H   9)          109.8019         0.326097   
     56. A(C   4,C   6,H   8)          109.0636         0.325772   
     57. A(H   7,C   6,H   8)          108.2257         0.289471   
     58. A(H  12,C  10,H  13)          108.7667         0.289684   
     59. A(H  11,C  10,H  13)          109.5546         0.289576   
     60. A(C   4,C  10,H  13)          111.2057         0.327165   
     61. A(H  11,C  10,H  12)          107.9802         0.289225   
     62. A(C   4,C  10,H  12)          108.5169         0.326748   
     63. A(C   4,C  10,H  11)          110.7323         0.326620   
     64. A(O   1,C  14,C  15)          125.3217         0.431430   
     65. A(C  15,C  14,C  23)          120.9666         0.428946   
     66. A(O   1,C  14,C  23)          113.7039         0.424604   
     67. A(H  16,C  15,C  17)          119.5585         0.354169   
     68. A(C  14,C  15,C  17)          118.8127         0.434541   
     69. A(C  14,C  15,H  16)          121.6288         0.355181   
     70. A(H  18,C  17,C  19)          119.8308         0.353192   
     71. A(C  15,C  17,C  19)          121.4035         0.432867   
     72. A(C  15,C  17,H  18)          118.7657         0.353469   
     73. A(C  17,C  19,H  20)          120.1882         0.353399   
     74. A(H  20,C  19,C  21)          120.3045         0.355785   
     75. A(C  17,C  19,C  21)          119.5071         0.435606   
     76. A(H  22,C  21,C  23)          118.6175         0.350587   
     77. A(C  19,C  21,C  23)          120.6461         0.432365   
     78. A(C  19,C  21,H  22)          120.7360         0.355439   
     79. A(C  14,C  23,C  21)          118.6634         0.424135   
     80. A(C   2,C  23,C  21)          122.2511         0.419362   
     81. A(C   2,C  23,C  14)          119.0734         0.417424   
     82. L(Ru  0,C  26,O  27,Cl 24, 2) 181.1912         0.652091   
     83. L(Ru  0,C  26,O  27,Cl 24, 1) 179.4042         0.652091   
     84. D(C  14,O   1,Ru  0,C   2)     -2.6130         0.001731   
     85. D(C   4,O   1,Ru  0,C  26)    172.6609         0.001731   
     86. D(C   4,O   1,Ru  0,C   2)    170.2000         0.001731   
     87. D(C  14,O   1,Ru  0,Cl 25)   -109.2314         0.001731   
     88. D(C  14,O   1,Ru  0,Cl 24)    101.9390         0.001731   
     89. D(C   4,O   1,Ru  0,Cl 25)     63.5816         0.001731   
     90. D(C   4,O   1,Ru  0,Cl 24)    -85.2480         0.001731   
     91. D(C  23,C   2,Ru  0,Cl 25)     87.6554         0.007569   
     92. D(C  23,C   2,Ru  0,O   1)      2.4202         0.007569   
     93. D(H   3,C   2,Ru  0,C  26)      1.1027         0.007569   
     94. D(C  23,C   2,Ru  0,Cl 24)    -82.6989         0.007569   
     95. D(H   3,C   2,Ru  0,O   1)   -179.2365         0.007569   
     96. D(H   3,C   2,Ru  0,Cl 25)    -94.0013         0.007569   
     97. D(H   3,C   2,Ru  0,Cl 24)     95.6444         0.007569   
     98. D(H   5,C   4,O   1,Ru  0)    139.4496         0.014106   
     99. D(C  10,C   4,O   1,Ru  0)     23.0949         0.014106   
    100. D(C   6,C   4,O   1,C  14)     72.2703         0.014106   
    101. D(C   6,C   4,O   1,Ru  0)    -99.8838         0.014106   
    102. D(H   5,C   4,O   1,C  14)    -48.3963         0.014106   
    103. D(H   8,C   6,C   4,C  10)     64.8177         0.012147   
    104. D(H   8,C   6,C   4,H   5)    -58.8654         0.012147   
    105. D(H   8,C   6,C   4,O   1)   -176.0241         0.012147   
    106. D(H   7,C   6,C   4,C  10)   -175.3374         0.012147   
    107. D(H   7,C   6,C   4,H   5)     60.9795         0.012147   
    108. D(H   7,C   6,C   4,O   1)    -56.1792         0.012147   
    109. D(H  12,C  10,C   4,H   5)     62.7474         0.012539   
    110. D(H  11,C  10,C   4,C   6)     56.0676         0.012539   
    111. D(H  12,C  10,C   4,O   1)    176.9473         0.012539   
    112. D(H  11,C  10,C   4,H   5)   -178.9027         0.012539   
    113. D(H  11,C  10,C   4,O   1)    -64.7028         0.012539   
    114. D(H  12,C  10,C   4,C   6)    -62.2823         0.012539   
    115. D(C  23,C  14,O   1,C   4)   -171.4320         0.030540   
    116. D(C  23,C  14,O   1,Ru  0)      2.1981         0.030540   
    117. D(C  15,C  14,O   1,C   4)      9.5866         0.030540   
    118. D(C  15,C  14,O   1,Ru  0)   -176.7834         0.030540   
    119. D(C  17,C  15,C  14,C  23)      0.0606         0.027255   
    120. D(C  17,C  15,C  14,O   1)    178.9730         0.027255   
    121. D(H  16,C  15,C  14,C  23)   -179.9620         0.027255   
    122. D(H  16,C  15,C  14,O   1)     -1.0497         0.027255   
    123. D(C  19,C  17,C  15,H  16)   -179.8036         0.026298   
    124. D(C  19,C  17,C  15,C  14)      0.1743         0.026298   
    125. D(H  18,C  17,C  15,H  16)      0.1695         0.026298   
    126. D(H  18,C  17,C  15,C  14)   -179.8526         0.026298   
    127. D(C  21,C  19,C  17,H  18)    179.7705         0.026041   
    128. D(C  21,C  19,C  17,C  15)     -0.2567         0.026041   
    129. D(H  20,C  19,C  17,H  18)     -0.0654         0.026041   
    130. D(H  20,C  19,C  17,C  15)    179.9075         0.026041   
    131. D(C  23,C  21,C  19,H  20)    179.9381         0.028333   
    132. D(C  23,C  21,C  19,C  17)      0.1025         0.028333   
    133. D(H  22,C  21,C  19,H  20)      0.1545         0.028333   
    134. D(H  22,C  21,C  19,C  17)   -179.6812         0.028333   
    135. D(C  14,C  23,C  21,C  19)      0.1244         0.023859   
    136. D(C   2,C  23,C  21,H  22)      1.1945         0.023859   
    137. D(C   2,C  23,C  21,C  19)   -178.5937         0.023859   
    138. D(C  21,C  23,C  14,C  15)     -0.2075         0.022595   
    139. D(C  21,C  23,C  14,O   1)   -179.2383         0.022595   
    140. D(C   2,C  23,C  14,C  15)    178.5521         0.022595   
    141. D(C   2,C  23,C  14,O   1)     -0.4787         0.022595   
    142. D(C  21,C  23,C   2,H   3)     -1.8231         0.019813   
    143. D(C  21,C  23,C   2,Ru  0)    176.6336         0.019813   
    144. D(C  14,C  23,C   2,H   3)    179.4639         0.019813   
    145. D(C  14,C  23,C  21,H  22)    179.9125         0.023859   
    146. D(C  14,C  23,C   2,Ru  0)     -2.0793         0.019813   
    -----------------------------------------------------------------

Number of atoms                         .... 28
Number of degrees of freedom            .... 146


         *************************************************************
         *                GEOMETRY OPTIMIZATION CYCLE   1            *
         *************************************************************
---------------------------------
CARTESIAN COORDINATES (ANGSTROEM)
---------------------------------
  Ru    -1.054689    0.044744   -0.004242
  O      0.972933   -0.810987   -0.606480
  C      0.057017    1.460623    0.422974
  H     -0.287104    2.401716    0.858025
  C      1.344189   -2.186075   -0.997220
  H      2.049575   -2.083096   -1.831489
  C      1.974452   -2.899947    0.184469
  H      2.837420   -2.357948    0.580293
  H      2.310135   -3.892118   -0.134647
  H      1.238194   -3.012529    0.984820
  C      0.081689   -2.856689   -1.493174
  H     -0.649011   -2.954737   -0.683346
  H      0.336332   -3.862358   -1.842069
  H     -0.362642   -2.299485   -2.321082
  C      1.939521    0.132719   -0.414145
  C      3.282995   -0.017133   -0.733338
  H      3.666691   -0.936436   -1.157761
  C      4.151941    1.046607   -0.497962
  H      5.201748    0.929473   -0.750061
  C      3.699892    2.246550    0.050963
  H      4.394086    3.061602    0.227342
  C      2.359726    2.390258    0.365303
  H      1.985067    3.318089    0.788946
  C      1.453630    1.339192    0.138537
  Cl    -1.500808    0.348516   -2.258759
  Cl    -1.031761   -1.367547    1.840784
  C     -2.535774    0.930950    0.528997
  O     -3.473545    1.513745    0.857920

----------------------------
CARTESIAN COORDINATES (A.U.)
----------------------------
  NO LB      ZA    FRAG     MASS         X           Y           Z
   0 Ru   16.0000*   0   101.070   -1.993073    0.084554   -0.008016
   1 O     8.0000    0    15.999    1.838577   -1.532543   -1.146081
   2 C     6.0000    0    12.011    0.107747    2.760177    0.799305
   3 H     1.0000    0     1.008   -0.542548    4.538585    1.621432
   4 C     6.0000    0    12.011    2.540149   -4.131083   -1.884473
   5 H     1.0000    0     1.008    3.873135   -3.936481   -3.461013
   6 C     6.0000    0    12.011    3.731174   -5.480106    0.348596
   7 H     1.0000    0     1.008    5.361947   -4.455876    1.096595
   8 H     1.0000    0     1.008    4.365522   -7.355037   -0.254446
   9 H     1.0000    0     1.008    2.339848   -5.692855    1.861040
  10 C     6.0000    0    12.011    0.154370   -5.398360   -2.821690
  11 H     1.0000    0     1.008   -1.226453   -5.583644   -1.291337
  12 H     1.0000    0     1.008    0.635575   -7.298799   -3.481006
  13 H     1.0000    0     1.008   -0.685294   -4.345397   -4.386209
  14 C     6.0000    0    12.011    3.665164    0.250803   -0.782621
  15 C     6.0000    0    12.011    6.203961   -0.032377   -1.385808
  16 H     1.0000    0     1.008    6.929042   -1.769608   -2.187851
  17 C     6.0000    0    12.011    7.846031    1.977801   -0.941012
  18 H     1.0000    0     1.008    9.829879    1.756449   -1.417410
  19 C     6.0000    0    12.011    6.991783    4.245364    0.096306
  20 H     1.0000    0     1.008    8.303619    5.785589    0.429614
  21 C     6.0000    0    12.011    4.459236    4.516933    0.690323
  22 H     1.0000    0     1.008    3.751233    6.270279    1.490892
  23 C     6.0000    0    12.011    2.746963    2.530706    0.261797
  24 Cl   17.0000    0    35.453   -2.836116    0.658600   -4.268436
  25 Cl   17.0000    0    35.453   -1.949746   -2.584289    3.478578
  26 C     6.0000    0    12.011   -4.791918    1.759241    0.999659
  27 O     8.0000    0    15.999   -6.564049    2.860563    1.621234
* core charge reduced due to ECP

--------------------------------
INTERNAL COORDINATES (ANGSTROEM)
--------------------------------
 Ru     0   0   0     0.000000000000     0.00000000     0.00000000
 O      1   0   0     2.281713667484     0.00000000     0.00000000
 C      1   2   0     1.850166746471    79.28036839     0.00000000
 H      3   1   2     1.092403162706   124.19076946   180.76348973
 C      2   1   3     1.476948128026   129.96924703   170.19997716
 H      5   2   1     1.097350831684   105.98242398   139.44960687
 C      5   2   1     1.517640792241   109.65388852   260.11621449
 H      7   5   2     1.093230681970   112.11916804   303.82083301
 H      7   5   2     1.094952689017   109.06363058   183.97592535
 H      7   5   2     1.093303376236   109.80186506    64.53165712
 C      5   2   1     1.513142345291   106.83465470    23.09486442
 H     11   5   2     1.095151720032   110.73228149   295.29721017
 H     11   5   2     1.094504872550   108.51690367   176.94734757
 H     11   5   2     1.092400106024   111.20570909    57.35213815
 C      2   1   3     1.364502154049   109.44553680   357.38698207
 C     15   2   1     1.388978826991   125.32165479   183.21661994
 H     16  15   2     1.082809082504   121.62879211   358.95033843
 C     16  15   2     1.393560834658   118.81274370   178.97295353
 H     18  16  15     1.085987576819   118.76571716   180.14737685
 C     18  16  15     1.394822625740   121.40352186     0.17425257
 H     20  18  16     1.085045908697   120.18822916   179.90745577
 C     20  18  16     1.384018255812   119.50706657   359.74330576
 H     22  20  18     1.086606240683   120.73603736   180.31881660
 C     22  20  18     1.406119666432   120.64610979     0.10246390
 Cl     1   2   3     2.318220651583    87.90627771   104.55203101
 Cl     1   2   3     2.323620471728    88.44486907   253.38159278
 C      1   2   3     1.806465489698   172.08511722     2.46094202
 O     27   1   3     1.152065449701   178.90947664    46.85150108

---------------------------
INTERNAL COORDINATES (A.U.)
---------------------------
 Ru     0   0   0     0.000000000000     0.00000000     0.00000000
 O      1   0   0     4.311813947569     0.00000000     0.00000000
 C      1   2   0     3.496308452917    79.28036839     0.00000000
 H      3   1   2     2.064342805345   124.19076946   180.76348973
 C      2   1   3     2.791027475977   129.96924703   170.19997716
 H      5   2   1     2.073692544714   105.98242398   139.44960687
 C      5   2   1     2.867925467003   109.65388852   260.11621449
 H      7   5   2     2.065906590124   112.11916804   303.82083301
 H      7   5   2     2.069160711843   109.06363058   183.97592535
 H      7   5   2     2.066043962377   109.80186506    64.53165712
 C      5   2   1     2.859424634239   106.83465470    23.09486442
 H     11   5   2     2.069536825952   110.73228149   295.29721017
 H     11   5   2     2.068314461361   108.51690367   176.94734757
 H     11   5   2     2.064337029052   111.20570909    57.35213815
 C      2   1   3     2.578535380299   109.44553680   357.38698207
 C     15   2   1     2.624789588828   125.32165479   183.21661994
 H     16  15   2     2.046212621256   121.62879211   358.95033843
 C     16  15   2     2.633448328462   118.81274370   178.97295353
 H     18  16  15     2.052219105029   118.76571716   180.14737685
 C     18  16  15     2.635832768045   121.40352186     0.17425257
 H     20  18  16     2.050439610170   120.18822916   179.90745577
 C     20  18  16     2.615415467831   119.50706657   359.74330576
 H     22  20  18     2.053388210300   120.73603736   180.31881660
 C     22  20  18     2.657181081078   120.64610979     0.10246390
 Cl     1   2   3     4.380802149493    87.90627771   104.55203101
 Cl     1   2   3     4.391006330740    88.44486907   253.38159278
 C      1   2   3     3.413725045909   172.08511722     2.46094202
 O     27   1   3     2.177088188288   178.90947664    46.85150108

---------------------
BASIS SET INFORMATION
---------------------
There are 5 groups of distinct atoms

 Group   1 Type Ru  : 7s7p5d contracted to 6s4p3d pattern {211111/4111/311}
 Group   2 Type O   : 11s6p2d contracted to 5s3p2d pattern {62111/411/11}
 Group   3 Type C   : 11s6p1d contracted to 5s3p1d pattern {62111/411/1}
 Group   4 Type H   : 4s1p contracted to 2s1p pattern {31/1}
 Group   5 Type Cl  : 14s9p2d contracted to 5s4p2d pattern {73211/6111/11}

Atom   0Ru   basis set group =>   1
Atom   1O    basis set group =>   2
Atom   2C    basis set group =>   3
Atom   3H    basis set group =>   4
Atom   4C    basis set group =>   3
Atom   5H    basis set group =>   4
Atom   6C    basis set group =>   3
Atom   7H    basis set group =>   4
Atom   8H    basis set group =>   4
Atom   9H    basis set group =>   4
Atom  10C    basis set group =>   3
Atom  11H    basis set group =>   4
Atom  12H    basis set group =>   4
Atom  13H    basis set group =>   4
Atom  14C    basis set group =>   3
Atom  15C    basis set group =>   3
Atom  16H    basis set group =>   4
Atom  17C    basis set group =>   3
Atom  18H    basis set group =>   4
Atom  19C    basis set group =>   3
Atom  20H    basis set group =>   4
Atom  21C    basis set group =>   3
Atom  22H    basis set group =>   4
Atom  23C    basis set group =>   3
Atom  24Cl   basis set group =>   5
Atom  25Cl   basis set group =>   5
Atom  26C    basis set group =>   3
Atom  27O    basis set group =>   2
---------------------------------
AUXILIARY/J BASIS SET INFORMATION
---------------------------------
There are 5 groups of distinct atoms

 Group   1 Type Ru  : 11s5p5d3f3g contracted to 8s5p5d2f3g pattern {41111111/11111/11111/21/111}
 Group   2 Type O   : 8s3p3d contracted to 6s3p3d pattern {311111/111/111}
 Group   3 Type C   : 8s3p3d contracted to 6s3p3d pattern {311111/111/111}
 Group   4 Type H   : 5s2p1d contracted to 3s1p1d pattern {311/2/1}
 Group   5 Type Cl  : 14s5p5d2f contracted to 8s4p3d1f pattern {71111111/2111/311/2}

Atom   0Ru   basis set group =>   1
Atom   1O    basis set group =>   2
Atom   2C    basis set group =>   3
Atom   3H    basis set group =>   4
Atom   4C    basis set group =>   3
Atom   5H    basis set group =>   4
Atom   6C    basis set group =>   3
Atom   7H    basis set group =>   4
Atom   8H    basis set group =>   4
Atom   9H    basis set group =>   4
Atom  10C    basis set group =>   3
Atom  11H    basis set group =>   4
Atom  12H    basis set group =>   4
Atom  13H    basis set group =>   4
Atom  14C    basis set group =>   3
Atom  15C    basis set group =>   3
Atom  16H    basis set group =>   4
Atom  17C    basis set group =>   3
Atom  18H    basis set group =>   4
Atom  19C    basis set group =>   3
Atom  20H    basis set group =>   4
Atom  21C    basis set group =>   3
Atom  22H    basis set group =>   4
Atom  23C    basis set group =>   3
Atom  24Cl   basis set group =>   5
Atom  25Cl   basis set group =>   5
Atom  26C    basis set group =>   3
Atom  27O    basis set group =>   2
-------------------------
ECP PARAMETER INFORMATION
-------------------------

 Group 1, Type Ru ECP Def2-ECP (replacing 28 core electrons, lmax=3)

Atom   0Ru   ECP group =>   1



           ************************************************************
           *        Program running with 20 parallel MPI-processes    *
           *              working on a common directory               *
           ************************************************************
------------------------------------------------------------------------------
                             ORCA STARTUP CALCULATIONS
                           -- RI-GTO INTEGRALS CHOSEN --
------------------------------------------------------------------------------
------------------------------------------------------------------------------
                   ___                                                        
                  /   \      - P O W E R E D   B Y -                         
                 /     \                                                     
                 |  |  |   _    _      __       _____    __    __             
                 |  |  |  | |  | |    /  \     |  _  \  |  |  /  |          
                  \  \/   | |  | |   /    \    | | | |  |  | /  /          
                 / \  \   | |__| |  /  /\  \   | |_| |  |  |/  /          
                |  |  |   |  __  | /  /__\  \  |    /   |      \           
                |  |  |   | |  | | |   __   |  |    \   |  |\   \          
                \     /   | |  | | |  |  |  |  | |\  \  |  | \   \       
                 \___/    |_|  |_| |__|  |__|  |_| \__\ |__|  \__/        
                                                                              
                      - O R C A' S   B I G   F R I E N D -                    
                                      &                                       
                       - I N T E G R A L  F E E D E R -                       
                                                                              
 v1 FN, 2020, v2 2021, v3 2022-2024                                           
------------------------------------------------------------------------------


----------------------
SHARK INTEGRAL PACKAGE
----------------------

Number of atoms                             ...     28
Number of basis functions                   ...    404
Number of shells                            ...    190
Maximum angular momentum                    ...      2
Integral batch strategy                     ... SHARK/LIBINT Hybrid
RI-J (if used) integral strategy            ... SPLIT-RIJ (Revised 2003 algorithm where possible)
Printlevel                                  ...      1
Contraction scheme used                     ... SEGMENTED contraction
Prescreening option                         ... SCHWARTZ
   Thresh                                   ... 2.500e-11
   Tcut                                     ... 2.500e-12
   Tpresel                                  ... 2.500e-12 
Coulomb Range Separation                    ... NOT USED
Exchange Range Separation                   ... NOT USED
Multipole approximations                    ... NOT USED
Finite Nucleus Model                        ... NOT USED
CABS basis                                  ... NOT available
Auxiliary Coulomb fitting basis             ... AVAILABLE
   # of basis functions in Aux-J            ...    695
   # of shells in Aux-J                     ...    271
   Maximum angular momentum in Aux-J        ...      4
Auxiliary J/K fitting basis                 ... NOT available
Auxiliary Correlation fitting basis         ... NOT available
Auxiliary 'external' fitting basis          ... NOT available

Checking pre-screening integrals            ... done (  0.0 sec) Dimension = 190
Check shell pair data                       ... done (  0.0 sec)
Shell pair information
Shell pair cut-off parameter TPreSel        ...   2.5e-12
Total number of shell pairs                 ...     18145
Shell pairs after pre-screening             ...     14276
Total number of primitive shell pairs       ...     67207
Primitive shell pairs kept                  ...     33968
          la=0 lb=0:   4144 shell pairs
          la=1 lb=0:   5277 shell pairs
          la=1 lb=1:   1699 shell pairs
          la=2 lb=0:   1789 shell pairs
          la=2 lb=1:   1150 shell pairs
          la=2 lb=2:    217 shell pairs

Calculating one electron integrals          ... done (  0.0 sec)
Calculating ECP integrals                   ... done (  0.6 sec)
Calculating RI/J V-Matrix + Cholesky decomp.... done (  0.0 sec)
Calculating Nuclear repulsion               ... done (  0.0 sec) ENN=   1532.754817593818 Eh

Diagonalization of the overlap matrix:
Smallest eigenvalue                        ... 2.295e-05
Time for diagonalization                   ...    0.032 sec
Threshold for overlap eigenvalues          ... 1.000e-07
Number of eigenvalues below threshold      ... 0
Time for construction of square roots      ...    0.015 sec
Total time needed                          ...    0.086 sec

-------------------
DFT GRID GENERATION
-------------------

General Integration Accuracy     IntAcc      ... 4.388
Radial Grid Type                 RadialGrid  ... OptM3 with GC (2021)
Angular Grid (max. ang.)         AngularGrid ... 4 (Lebedev-302)
Angular grid pruning method      GridPruning ... 4 (adaptive)
Weight generation scheme         WeightScheme... mBecke (2022)
Basis function cutoff            BFCut       ... 1.0000e-11
Integration weight cutoff        WCut        ... 1.0000e-14
Partially contracted basis set               ... off
Rotationally invariant grid construction     ... off
Angular grids for H and He will be reduced by one unit
Diffuse basis detected: some atoms will have their outermost
                        angular grid increased by 1.

Total number of grid points                  ...   141354
Total number of batches                      ...     2223
Average number of points per batch           ...       63
Average number of grid points per atom       ...     5048
Initializing property integral containers    ... done (  0.1 sec)

SHARK setup successfully completed in   3.6 seconds

Maximum memory used throughout the entire STARTUP-calculation: 48.7 MB


           ************************************************************
           *        Program running with 20 parallel MPI-processes    *
           *              working on a common directory               *
           ************************************************************
-------------------------------------------------------------------------------
                                 ORCA GUESS
                   Start orbitals & Density for SCF / CASSCF
-------------------------------------------------------------------------------

------------
SCF SETTINGS
------------
Hamiltonian:
 Density Functional     Method          .... DFT(GTOs)
  Functional kind                       .... Exchange
  Functional name                       .... Re-regularized SCAN exchange by Furness et al
  Functional family                     .... MGGA
  Functional refs                              
    [ 0] J. W. Furness, A. D. Kaplan, J. Ning, J. P. Perdew, and J. Sun.,  J. Phys. Chem. Lett. 11, 8208-8215 (2020), doi: 10.1021/acs.jpclett.0c02405
    [ 1] J. W. Furness, A. D. Kaplan, J. Ning, J. P. Perdew, and J. Sun.,  J. Phys. Chem. Lett. 11, 9248-9248 (2020), doi: 10.1021/acs.jpclett.0c03077
  Functional external parameters        .... 6
    Parameter  0 _c1        =  6.670000e-01 : c1 parameter        
    Parameter  1 _c2        =  8.000000e-01 : c2 parameter        
    Parameter  2 _d         =  1.240000e+00 : d parameter         
    Parameter  3 _k1        =  6.500000e-02 : k1 parameter        
    Parameter  4 _eta       =  1.000000e-03 : eta parameter       
    Parameter  5 _dp2       =  3.610000e-01 : dp2 parameter       
  Functional kind                       .... Correlation
  Functional name                       .... Re-regularized SCAN correlation by Furness et al
  Functional family                     .... MGGA
  Functional refs                              
    [ 0] J. W. Furness, A. D. Kaplan, J. Ning, J. P. Perdew, and J. Sun.,  J. Phys. Chem. Lett. 11, 8208-8215 (2020), doi: 10.1021/acs.jpclett.0c02405
    [ 1] J. W. Furness, A. D. Kaplan, J. Ning, J. P. Perdew, and J. Sun.,  J. Phys. Chem. Lett. 11, 9248-9248 (2020), doi: 10.1021/acs.jpclett.0c03077
  Functional external parameters        .... 1
    Parameter  0 _eta       =  1.000000e-03 : Regularization parameter
 Gradients option       PostSCFGGA      .... off
 RI-approximation to the Coulomb term is turned on
   Number of AuxJ basis functions       .... 695


General Settings:
 Integral files         IntName         .... cli47
 Hartree-Fock type      HFTyp           .... RHF
 Total Charge           Charge          ....    0
 Multiplicity           Mult            ....    1
 Number of Electrons    NEL             ....  144
 Basis Dimension        Dim             ....  404
 Nuclear Repulsion      ENuc            ....   1532.7548175938 Eh

Convergence Acceleration:
 AO-DIIS                CNVDIIS         .... on
   Start iteration      DIISMaxIt       ....    12
   Startup error        DIISStart       ....  0.200000
   # of expansion vecs  DIISMaxEq       ....     5
   Bias factor          DIISBfac        ....   1.050
   Max. coefficient     DIISMaxC        ....  10.000
 MO-DIIS                CNVKDIIS        .... off
 Trust-Rad. Augm. Hess. CNVTRAH         .... auto
   Auto Start mean grad. ratio tolernc. ....  1.125000
   Auto Start start iteration           ....     1
   Auto Start num. interpolation iter.  ....    10
   Max. Number of Micro iterations      ....    24
   Max. Number of Macro iterations      .... Maxiter - #DIIS iter
   Number of Davidson start vectors     ....     2
   Converg. threshold    (grad. norm)   ....   1.000e-05
   Grad. Scal. Fac. for Micro threshold ....   0.100
   Minimum threshold for Micro iter.    ....   1.000e-02
   NR start threshold (gradient norm)   ....   1.000e-04
   Initial trust radius                 ....   0.400
   Minimum AH scaling param. (alpha)    ....   1.000
   Maximum AH scaling param. (alpha)    .... 1000.000
   Quad. conv. algorithm                .... NR
   White noise on init. David. guess    .... on
   Maximum white noise                  ....   0.010
   Pseudo random numbers                .... off
   Inactive MOs                         .... canonical
   Orbital update algorithm             .... Taylor
   Preconditioner                       .... Diag
   Full preconditioner red. dimension   ....   250
   COSX micro iterations for RIJONX calc.... off
 SOSCF                  CNVSOSCF        .... on
   Start iteration      SOSCFMaxIt      ....   150
   Startup grad/error   SOSCFStart      ....  0.003300
   Hessian update       SOSCFHessUp     .... L-BFGS
 Level Shifting         CNVShift        .... on
   Level shift para.    LevelShift      ....    0.2500
   Turn off err/grad.   ShiftErr        ....    0.0010
 Zerner damping         CNVZerner       .... off
 Static damping         CNVDamp         .... on
   Fraction old density DampFac         ....    0.7000
   Max. Damping (<1)    DampMax         ....    0.9800
   Min. Damping (>=0)   DampMin         ....    0.0000
   Turn off err/grad.   DampErr         ....    0.1000

SCF Procedure:
 Maximum # iterations   MaxIter         ....   500
 SCF integral mode      SCFMode         .... Direct
   Integral package                     .... SHARK and LIBINT hybrid scheme
 Reset frequency        DirectResetFreq ....    20
 Integral Threshold     Thresh          ....  2.500e-11 Eh
 Primitive CutOff       TCut            ....  2.500e-12 Eh

Convergence Tolerance:
 Convergence Check Mode ConvCheckMode   .... Total+1el-Energy
 Convergence forced     ConvForced      .... 0
 Energy Change          TolE            ....  1.000e-08 Eh
 1-El. energy change                    ....  1.000e-05 Eh
 Orbital Gradient       TolG            ....  1.000e-05
 Orbital Rotation angle TolX            ....  1.000e-05
 DIIS Error             TolErr          ....  5.000e-07

---------------------
INITIAL GUESS: MOREAD
---------------------
Guess MOs are being read from file: restart.gbw
Input geometry compatible with but different from current geometry
Input basis set matches current basis set (good)
Occupation numbers will be reassigned to an Aufbau configuration
MOs were renormalized
MOs were reorthogonalized (Cholesky)
                      ------------------
                      INITIAL GUESS DONE (   0.3 sec)
                      ------------------
             **** ENERGY FILE WAS UPDATED (cli47.en.tmp) ****
Finished Guess after   2.2 sec
Maximum memory used throughout the entire GUESS-calculation: 28.6 MB


           ************************************************************
           *        Program running with 20 parallel MPI-processes    *
           *              working on a common directory               *
           ************************************************************

-------------------------------------------------------------------------------------------
                                      ORCA LEAN-SCF
                              memory conserving SCF solver
-------------------------------------------------------------------------------------------

----------------------------------------D-I-I-S--------------------------------------------
Iteration    Energy (Eh)           Delta-E    RMSDP     MaxDP     DIISErr   Damp  Time(sec)
-------------------------------------------------------------------------------------------
               ***  Starting incremental Fock matrix formation  ***
                              *** Initializing SOSCF ***
---------------------------------------S-O-S-C-F--------------------------------------
Iteration    Energy (Eh)           Delta-E    RMSDP     MaxDP     MaxGrad    Time(sec)
--------------------------------------------------------------------------------------
    1    -1592.1774683772673598     0.00e+00  1.01e-06  5.84e-05  6.62e-07     2.2
               *** Restarting incremental Fock matrix formation ***
    2    -1592.1774683772591743     8.19e-12  2.85e-07  1.56e-05  2.43e-06     1.8
                  *** Gradient check signals convergence ***

               *****************************************************
               *                     SUCCESS                       *
               *           SCF CONVERGED AFTER   2 CYCLES          *
               *****************************************************

             **** ENERGY FILE WAS UPDATED (cli47.en.tmp) ****

----------------
TOTAL SCF ENERGY
----------------

Total Energy       :      -1592.17746837725917 Eh          -43325.35153 eV

Components:
Nuclear Repulsion  :       1532.75481759381819 Eh           41708.37900 eV
Electronic Energy  :      -3124.93228597107736 Eh          -85033.73053 eV
One Electron Energy:      -5269.10396177814619 Eh         -143379.60808 eV
Two Electron Energy:       2144.17167580706882 Eh           58345.87755 eV

Virial components:
Potential Energy   :      -3118.64507333520760 Eh          -84862.64678 eV
Kinetic Energy     :       1526.46760495794820 Eh           41537.29525 eV
Virial Ratio       :          2.04304700814212

DFT components:
N(Alpha)           :       72.000041157640 electrons
N(Beta)            :       72.000041157640 electrons
N(Total)           :      144.000082315280 electrons
E(X)               :     -142.697240669508 Eh       
E(C)               :       -5.014161181545 Eh       
E(XC)              :     -147.711401851053 Eh       

---------------
SCF CONVERGENCE
---------------

  Last Energy change         ...   -8.1855e-12  Tolerance :   1.0000e-08
  Last MAX-Density change    ...    1.5587e-05  Tolerance :   1.0000e-07
  Last RMS-Density change    ...    2.8531e-07  Tolerance :   5.0000e-09
  Last DIIS Error            ...    4.5536e-06  Tolerance :   5.0000e-07
  Last Orbital Gradient      ...    2.4290e-06  Tolerance :   1.0000e-05
  Last Orbital Rotation      ...    5.9388e-06  Tolerance :   1.0000e-05


----------------
ORBITAL ENERGIES
----------------

  NO   OCC          E(Eh)            E(eV) 
   0   2.0000    -101.175313     -2753.1202 
   1   2.0000    -101.174477     -2753.0975 
   2   2.0000     -19.042271      -518.1665 
   3   2.0000     -19.024610      -517.6859 
   4   2.0000     -10.152061      -276.2516 
   5   2.0000     -10.137166      -275.8463 
   6   2.0000     -10.128796      -275.6185 
   7   2.0000     -10.094772      -274.6927 
   8   2.0000     -10.077289      -274.2170 
   9   2.0000     -10.074625      -274.1445 
  10   2.0000     -10.073357      -274.1100 
  11   2.0000     -10.070845      -274.0416 
  12   2.0000     -10.062499      -273.8145 
  13   2.0000     -10.044316      -273.3197 
  14   2.0000     -10.042613      -273.2734 
  15   2.0000      -9.330233      -253.8886 
  16   2.0000      -9.329349      -253.8645 
  17   2.0000      -7.073708      -192.4854 
  18   2.0000      -7.072918      -192.4639 
  19   2.0000      -7.068499      -192.3436 
  20   2.0000      -7.067570      -192.3184 
  21   2.0000      -7.067199      -192.3083 
  22   2.0000      -7.066269      -192.2830 
  23   2.0000      -3.024152       -82.2914 
  24   2.0000      -1.877369       -51.0858 
  25   2.0000      -1.873440       -50.9789 
  26   2.0000      -1.872434       -50.9515 
  27   2.0000      -1.092400       -29.7257 
  28   2.0000      -1.075705       -29.2714 
  29   2.0000      -0.860838       -23.4246 
  30   2.0000      -0.795458       -21.6455 
  31   2.0000      -0.772331       -21.0162 
  32   2.0000      -0.739502       -20.1229 
  33   2.0000      -0.733365       -19.9559 
  34   2.0000      -0.725718       -19.7478 
  35   2.0000      -0.682633       -18.5754 
  36   2.0000      -0.665651       -18.1133 
  37   2.0000      -0.635772       -17.3002 
  38   2.0000      -0.583417       -15.8756 
  39   2.0000      -0.573089       -15.5945 
  40   2.0000      -0.545394       -14.8409 
  41   2.0000      -0.530511       -14.4359 
  42   2.0000      -0.493734       -13.4352 
  43   2.0000      -0.481413       -13.0999 
  44   2.0000      -0.463798       -12.6206 
  45   2.0000      -0.452197       -12.3049 
  46   2.0000      -0.443906       -12.0793 
  47   2.0000      -0.434689       -11.8285 
  48   2.0000      -0.428437       -11.6584 
  49   2.0000      -0.424439       -11.5496 
  50   2.0000      -0.412001       -11.2111 
  51   2.0000      -0.406231       -11.0541 
  52   2.0000      -0.390197       -10.6178 
  53   2.0000      -0.384996       -10.4763 
  54   2.0000      -0.381283       -10.3752 
  55   2.0000      -0.375258       -10.2113 
  56   2.0000      -0.357316        -9.7230 
  57   2.0000      -0.357114        -9.7176 
  58   2.0000      -0.349059        -9.4984 
  59   2.0000      -0.342387        -9.3168 
  60   2.0000      -0.340298        -9.2600 
  61   2.0000      -0.334462        -9.1012 
  62   2.0000      -0.331035        -9.0079 
  63   2.0000      -0.300631        -8.1806 
  64   2.0000      -0.298742        -8.1292 
  65   2.0000      -0.274732        -7.4758 
  66   2.0000      -0.274403        -7.4669 
  67   2.0000      -0.272445        -7.4136 
  68   2.0000      -0.247997        -6.7483 
  69   2.0000      -0.244582        -6.6554 
  70   2.0000      -0.218880        -5.9560 
  71   2.0000      -0.213344        -5.8054 
  72   0.0000      -0.128192        -3.4883 
  73   0.0000      -0.110672        -3.0115 
  74   0.0000      -0.068273        -1.8578 
  75   0.0000      -0.055748        -1.5170 
  76   0.0000      -0.030285        -0.8241 
  77   0.0000      -0.022750        -0.6191 
  78   0.0000      -0.015736        -0.4282 
  79   0.0000       0.034621         0.9421 
  80   0.0000       0.043358         1.1798 
  81   0.0000       0.054008         1.4696 
  82   0.0000       0.058855         1.6015 
*Only the first 10 virtual orbitals were printed.

                    ********************************
                    * MULLIKEN POPULATION ANALYSIS *
                    ********************************

-----------------------
MULLIKEN ATOMIC CHARGES
-----------------------
   0 Ru:    0.106935
   1 O :   -0.091551
   2 C :   -0.105316
   3 H :    0.149466
   4 C :   -0.073041
   5 H :    0.153453
   6 C :   -0.418645
   7 H :    0.155044
   8 H :    0.159648
   9 H :    0.192803
  10 C :   -0.464606
  11 H :    0.181540
  12 H :    0.152885
  13 H :    0.193138
  14 C :    0.265582
  15 C :   -0.254132
  16 H :    0.153975
  17 C :   -0.123407
  18 H :    0.153807
  19 C :   -0.154469
  20 H :    0.153662
  21 C :   -0.205591
  22 H :    0.151205
  23 C :    0.012560
  24 Cl:   -0.367700
  25 Cl:   -0.381954
  26 C :    0.595004
  27 O :   -0.290296
Sum of atomic charges:   -0.0000000

--------------------------------
MULLIKEN REDUCED ORBITAL CHARGES
--------------------------------
  0 Rus       :     2.671283  s :     2.671283
      pz      :     2.185541  p :     6.566041
      px      :     2.217309
      py      :     2.163191
      dz2     :     1.178664  d :     6.655741
      dxz     :     1.499335
      dyz     :     1.305742
      dx2y2   :     1.522496
      dxy     :     1.149505

  1 O s       :     3.658718  s :     3.658718
      pz      :     1.761001  p :     4.349840
      px      :     1.442757
      py      :     1.146082
      dz2     :     0.008265  d :     0.082992
      dxz     :     0.017909
      dyz     :     0.015293
      dx2y2   :     0.023945
      dxy     :     0.017579

  2 C s       :     3.157591  s :     3.157591
      pz      :     0.866292  p :     2.909238
      px      :     1.028624
      py      :     1.014322
      dz2     :     0.003196  d :     0.038486
      dxz     :     0.007064
      dyz     :     0.004815
      dx2y2   :     0.015482
      dxy     :     0.007929

  3 H s       :     0.831301  s :     0.831301
      pz      :     0.004825  p :     0.019233
      px      :     0.004341
      py      :     0.010067

  4 C s       :     3.230166  s :     3.230166
      pz      :     0.987667  p :     2.778660
      px      :     1.041139
      py      :     0.749855
      dz2     :     0.010137  d :     0.064214
      dxz     :     0.014027
      dyz     :     0.013179
      dx2y2   :     0.015372
      dxy     :     0.011498

  5 H s       :     0.829192  s :     0.829192
      pz      :     0.008276  p :     0.017355
      px      :     0.006812
      py      :     0.002267

  6 C s       :     3.305145  s :     3.305145
      pz      :     0.987018  p :     3.086827
      px      :     1.079417
      py      :     1.020391
      dz2     :     0.004221  d :     0.026673
      dxz     :     0.008466
      dyz     :     0.005341
      dx2y2   :     0.003985
      dxy     :     0.004661

  7 H s       :     0.826603  s :     0.826603
      pz      :     0.004713  p :     0.018353
      px      :     0.008269
      py      :     0.005372

  8 H s       :     0.822350  s :     0.822350
      pz      :     0.003932  p :     0.018002
      px      :     0.004381
      py      :     0.009689

  9 H s       :     0.788974  s :     0.788974
      pz      :     0.007747  p :     0.018223
      px      :     0.007037
      py      :     0.003439

 10 C s       :     3.352401  s :     3.352401
      pz      :     1.085119  p :     3.085316
      px      :     0.949296
      py      :     1.050901
      dz2     :     0.003371  d :     0.026889
      dxz     :     0.008720
      dyz     :     0.004182
      dx2y2   :     0.005309
      dxy     :     0.005307

 11 H s       :     0.800203  s :     0.800203
      pz      :     0.007713  p :     0.018257
      px      :     0.006891
      py      :     0.003652

 12 H s       :     0.829059  s :     0.829059
      pz      :     0.004484  p :     0.018057
      px      :     0.003691
      py      :     0.009882

 13 H s       :     0.788579  s :     0.788579
      pz      :     0.007753  p :     0.018283
      px      :     0.004838
      py      :     0.005692

 14 C s       :     3.121162  s :     3.121162
      pz      :     0.890538  p :     2.540170
      px      :     0.774613
      py      :     0.875019
      dz2     :     0.006876  d :     0.073086
      dxz     :     0.013522
      dyz     :     0.010525
      dx2y2   :     0.019108
      dxy     :     0.023054

 15 C s       :     3.239666  s :     3.239666
      pz      :     1.055838  p :     2.977593
      px      :     0.936371
      py      :     0.985384
      dz2     :     0.003407  d :     0.036873
      dxz     :     0.006589
      dyz     :     0.004242
      dx2y2   :     0.012814
      dxy     :     0.009821

 16 H s       :     0.825942  s :     0.825942
      pz      :     0.005731  p :     0.020083
      px      :     0.004366
      py      :     0.009986

 17 C s       :     3.200233  s :     3.200233
      pz      :     0.948740  p :     2.884151
      px      :     1.020057
      py      :     0.915354
      dz2     :     0.004285  d :     0.039023
      dxz     :     0.004077
      dyz     :     0.007279
      dx2y2   :     0.012251
      dxy     :     0.011132

 18 H s       :     0.827012  s :     0.827012
      pz      :     0.004282  p :     0.019181
      px      :     0.011636
      py      :     0.003263

 19 C s       :     3.188361  s :     3.188361
      pz      :     0.989559  p :     2.928102
      px      :     0.960777
      py      :     0.977767
      dz2     :     0.004150  d :     0.038006
      dxz     :     0.005894
      dyz     :     0.004688
      dx2y2   :     0.011174
      dxy     :     0.012099

 20 H s       :     0.826983  s :     0.826983
      pz      :     0.004260  p :     0.019355
      px      :     0.006785
      py      :     0.008310

 21 C s       :     3.235488  s :     3.235488
      pz      :     0.977902  p :     2.931353
      px      :     0.944257
      py      :     1.009195
      dz2     :     0.003275  d :     0.038749
      dxz     :     0.007656
      dyz     :     0.004028
      dx2y2   :     0.011108
      dxy     :     0.012684

 22 H s       :     0.829478  s :     0.829478
      pz      :     0.005216  p :     0.019317
      px      :     0.004108
      py      :     0.009992

 23 C s       :     3.240907  s :     3.240907
      pz      :     1.006538  p :     2.698030
      px      :     0.778699
      py      :     0.912793
      dz2     :     0.004764  d :     0.048503
      dxz     :     0.007125
      dyz     :     0.007176
      dx2y2   :     0.014855
      dxy     :     0.014583

 24 Cls       :     5.965026  s :     5.965026
      pz      :     3.564689  p :    11.372100
      px      :     3.916288
      py      :     3.891124
      dz2     :     0.010834  d :     0.030574
      dxz     :     0.008976
      dyz     :     0.008518
      dx2y2   :     0.001055
      dxy     :     0.001191

 25 Cls       :     5.965046  s :     5.965046
      pz      :     3.730848  p :    11.386598
      px      :     3.925532
      py      :     3.730218
      dz2     :     0.009909  d :     0.030310
      dxz     :     0.005200
      dyz     :     0.008306
      dx2y2   :     0.002481
      dxy     :     0.004414

 26 C s       :     3.173826  s :     3.173826
      pz      :     0.710542  p :     2.147985
      px      :     0.729422
      py      :     0.708021
      dz2     :     0.010290  d :     0.083185
      dxz     :     0.020129
      dyz     :     0.009301
      dx2y2   :     0.025436
      dxy     :     0.018029

 27 O s       :     3.876681  s :     3.876681
      pz      :     1.503239  p :     4.377407
      px      :     1.408491
      py      :     1.465678
      dz2     :     0.004156  d :     0.036208
      dxz     :     0.007873
      dyz     :     0.003309
      dx2y2   :     0.009147
      dxy     :     0.011724



                     *******************************
                     * LOEWDIN POPULATION ANALYSIS *
                     *******************************

----------------------
LOEWDIN ATOMIC CHARGES
----------------------
   0 Ru:   -0.392553
   1 O :   -0.680616
   2 C :   -0.031490
   3 H :    0.183289
   4 C :    0.085739
   5 H :    0.182482
   6 C :   -0.378958
   7 H :    0.167026
   8 H :    0.165452
   9 H :    0.180219
  10 C :   -0.371634
  11 H :    0.179028
  12 H :    0.168408
  13 H :    0.181025
  14 C :    0.248747
  15 C :   -0.155746
  16 H :    0.181866
  17 C :   -0.125216
  18 H :    0.174764
  19 C :   -0.172048
  20 H :    0.174770
  21 C :   -0.109453
  22 H :    0.179303
  23 C :   -0.056176
  24 Cl:   -0.036402
  25 Cl:   -0.049565
  26 C :    0.345489
  27 O :   -0.237751

-------------------------------
LOEWDIN REDUCED ORBITAL CHARGES
-------------------------------
  0 Rus       :     2.288136  s :     2.288136
      pz      :     2.407085  p :     6.961345
      px      :     2.263618
      py      :     2.290642
      dz2     :     1.326102  d :     7.143073
      dxz     :     1.544365
      dyz     :     1.398263
      dx2y2   :     1.563685
      dxy     :     1.310658

  1 O s       :     3.429309  s :     3.429309
      pz      :     1.748740  p :     4.658015
      px      :     1.544604
      py      :     1.364671
      dz2     :     0.065692  d :     0.593292
      dxz     :     0.089985
      dyz     :     0.112616
      dx2y2   :     0.158447
      dxy     :     0.166552

  2 C s       :     2.966305  s :     2.966305
      pz      :     0.878913  p :     2.990721
      px      :     1.045848
      py      :     1.065961
      dz2     :     0.005238  d :     0.074464
      dxz     :     0.012716
      dyz     :     0.008802
      dx2y2   :     0.032109
      dxy     :     0.015600

  3 H s       :     0.771080  s :     0.771080
      pz      :     0.010977  p :     0.045631
      px      :     0.009943
      py      :     0.024711

  4 C s       :     2.837483  s :     2.837483
      pz      :     1.052779  p :     2.944871
      px      :     1.068639
      py      :     0.823453
      dz2     :     0.019023  d :     0.131907
      dxz     :     0.030345
      dyz     :     0.026936
      dx2y2   :     0.031031
      dxy     :     0.024573

  5 H s       :     0.776106  s :     0.776106
      pz      :     0.019718  p :     0.041413
      px      :     0.016121
      py      :     0.005573

  6 C s       :     2.967048  s :     2.967048
      pz      :     1.101816  p :     3.351165
      px      :     1.142138
      py      :     1.107211
      dz2     :     0.009403  d :     0.060744
      dxz     :     0.019364
      dyz     :     0.011745
      dx2y2   :     0.009351
      dxy     :     0.010881

  7 H s       :     0.789089  s :     0.789089
      pz      :     0.010708  p :     0.043885
      px      :     0.020312
      py      :     0.012866

  8 H s       :     0.791228  s :     0.791228
      pz      :     0.009202  p :     0.043319
      px      :     0.009995
      py      :     0.024123

  9 H s       :     0.774907  s :     0.774907
      pz      :     0.019432  p :     0.044874
      px      :     0.017801
      py      :     0.007641

 10 C s       :     2.962720  s :     2.962720
      pz      :     1.149717  p :     3.348461
      px      :     1.078035
      py      :     1.120710
      dz2     :     0.007157  d :     0.060453
      dxz     :     0.019828
      dyz     :     0.009562
      dx2y2   :     0.012642
      dxy     :     0.011263

 11 H s       :     0.776549  s :     0.776549
      pz      :     0.019578  p :     0.044423
      px      :     0.016859
      py      :     0.007986

 12 H s       :     0.788350  s :     0.788350
      pz      :     0.010179  p :     0.043243
      px      :     0.008602
      py      :     0.024462

 13 H s       :     0.773964  s :     0.773964
      pz      :     0.020050  p :     0.045011
      px      :     0.011222
      py      :     0.013739

 14 C s       :     2.765412  s :     2.765412
      pz      :     0.910876  p :     2.830440
      px      :     0.987542
      py      :     0.932021
      dz2     :     0.014500  d :     0.155402
      dxz     :     0.025574
      dyz     :     0.021087
      dx2y2   :     0.043452
      dxy     :     0.050788

 15 C s       :     2.889678  s :     2.889678
      pz      :     1.042540  p :     3.188187
      px      :     1.046031
      py      :     1.099616
      dz2     :     0.005769  d :     0.077881
      dxz     :     0.012630
      dyz     :     0.008056
      dx2y2   :     0.027816
      dxy     :     0.023611

 16 H s       :     0.771918  s :     0.771918
      pz      :     0.013075  p :     0.046215
      px      :     0.009722
      py      :     0.023418

 17 C s       :     2.908525  s :     2.908525
      pz      :     0.964726  p :     3.134620
      px      :     1.096014
      py      :     1.073880
      dz2     :     0.007539  d :     0.082071
      dxz     :     0.007707
      dyz     :     0.014155
      dx2y2   :     0.028099
      dxy     :     0.024571

 18 H s       :     0.781096  s :     0.781096
      pz      :     0.009340  p :     0.044139
      px      :     0.027713
      py      :     0.007086

 19 C s       :     2.903792  s :     2.903792
      pz      :     1.011440  p :     3.187106
      px      :     1.091914
      py      :     1.083752
      dz2     :     0.007429  d :     0.081150
      dxz     :     0.011628
      dyz     :     0.008917
      dx2y2   :     0.025161
      dxy     :     0.028016

 20 H s       :     0.780687  s :     0.780687
      pz      :     0.009286  p :     0.044543
      px      :     0.015735
      py      :     0.019522

 21 C s       :     2.901436  s :     2.901436
      pz      :     0.970816  p :     3.126462
      px      :     1.083611
      py      :     1.072035
      dz2     :     0.005673  d :     0.081554
      dxz     :     0.014594
      dyz     :     0.007727
      dx2y2   :     0.025429
      dxy     :     0.028132

 22 H s       :     0.776303  s :     0.776303
      pz      :     0.011695  p :     0.044393
      px      :     0.009242
      py      :     0.023457

 23 C s       :     2.841625  s :     2.841625
      pz      :     1.005926  p :     3.115124
      px      :     1.064162
      py      :     1.045035
      dz2     :     0.008958  d :     0.099427
      dxz     :     0.013401
      dyz     :     0.013224
      dx2y2   :     0.031972
      dxy     :     0.031871

 24 Cls       :     5.710421  s :     5.710421
      pz      :     3.535835  p :    11.268887
      px      :     3.876782
      py      :     3.856270
      dz2     :     0.020087  d :     0.057094
      dxz     :     0.017967
      dyz     :     0.015446
      dx2y2   :     0.001781
      dxy     :     0.001814

 25 Cls       :     5.712361  s :     5.712361
      pz      :     3.702490  p :    11.280856
      px      :     3.885846
      py      :     3.692520
      dz2     :     0.017183  d :     0.056348
      dxz     :     0.010575
      dyz     :     0.014673
      dx2y2   :     0.004942
      dxy     :     0.008977

 26 C s       :     2.965087  s :     2.965087
      pz      :     0.747090  p :     2.519043
      px      :     0.965180
      py      :     0.806772
      dz2     :     0.021271  d :     0.170380
      dxz     :     0.040150
      dyz     :     0.017988
      dx2y2   :     0.049358
      dxy     :     0.041612

 27 O s       :     3.545280  s :     3.545280
      pz      :     1.494468  p :     4.516525
      px      :     1.526915
      py      :     1.495142
      dz2     :     0.022694  d :     0.175946
      dxz     :     0.037949
      dyz     :     0.016549
      dx2y2   :     0.041498
      dxy     :     0.057256



                      *****************************
                      * MAYER POPULATION ANALYSIS *
                      *****************************

  NA   - Mulliken gross atomic population
  ZA   - Total nuclear charge
  QA   - Mulliken gross atomic charge
  VA   - Mayer's total valence
  BVA  - Mayer's bonded valence
  FA   - Mayer's free valence

  ATOM       NA         ZA         QA         VA         BVA        FA
  0 Ru    15.8931    16.0000     0.1069     5.5928     5.5928     0.0000
  1 O      8.0916     8.0000    -0.0916     2.0310     2.0310     0.0000
  2 C      6.1053     6.0000    -0.1053     3.5362     3.5362    -0.0000
  3 H      0.8505     1.0000     0.1495     0.9588     0.9588    -0.0000
  4 C      6.0730     6.0000    -0.0730     3.6497     3.6497     0.0000
  5 H      0.8465     1.0000     0.1535     0.9495     0.9495     0.0000
  6 C      6.4186     6.0000    -0.4186     3.7086     3.7086    -0.0000
  7 H      0.8450     1.0000     0.1550     0.9664     0.9664    -0.0000
  8 H      0.8404     1.0000     0.1596     0.9616     0.9616    -0.0000
  9 H      0.8072     1.0000     0.1928     0.9572     0.9572    -0.0000
 10 C      6.4646     6.0000    -0.4646     3.6752     3.6752    -0.0000
 11 H      0.8185     1.0000     0.1815     0.9628     0.9628    -0.0000
 12 H      0.8471     1.0000     0.1529     0.9628     0.9628    -0.0000
 13 H      0.8069     1.0000     0.1931     0.9559     0.9559     0.0000
 14 C      5.7344     6.0000     0.2656     3.9238     3.9238     0.0000
 15 C      6.2541     6.0000    -0.2541     3.7571     3.7571     0.0000
 16 H      0.8460     1.0000     0.1540     0.9675     0.9675     0.0000
 17 C      6.1234     6.0000    -0.1234     3.8001     3.8001    -0.0000
 18 H      0.8462     1.0000     0.1538     0.9662     0.9662    -0.0000
 19 C      6.1545     6.0000    -0.1545     3.8087     3.8087    -0.0000
 20 H      0.8463     1.0000     0.1537     0.9681     0.9681    -0.0000
 21 C      6.2056     6.0000    -0.2056     3.7236     3.7236    -0.0000
 22 H      0.8488     1.0000     0.1512     0.9699     0.9699    -0.0000
 23 C      5.9874     6.0000     0.0126     3.8638     3.8638    -0.0000
 24 Cl    17.3677    17.0000    -0.3677     1.0717     1.0717     0.0000
 25 Cl    17.3820    17.0000    -0.3820     1.0550     1.0550    -0.0000
 26 C      5.4050     6.0000     0.5950     3.2656     3.2656    -0.0000
 27 O      8.2903     8.0000    -0.2903     2.3382     2.3382    -0.0000

  Mayer bond orders larger than 0.100000
B(  0-Ru,  1-O ) :   0.1658 B(  0-Ru,  2-C ) :   1.5521 B(  0-Ru, 24-Cl) :   1.0457 
B(  0-Ru, 25-Cl) :   1.0136 B(  0-Ru, 26-C ) :   1.3327 B(  0-Ru, 27-O ) :   0.1811 
B(  1-O ,  4-C ) :   0.7324 B(  1-O , 14-C ) :   1.0607 B(  2-C ,  3-H ) :   0.9245 
B(  2-C , 23-C ) :   1.0564 B(  4-C ,  5-H ) :   0.9504 B(  4-C ,  6-C ) :   0.9361 
B(  4-C , 10-C ) :   0.9382 B(  6-C ,  7-H ) :   0.9545 B(  6-C ,  8-H ) :   0.9701 
B(  6-C ,  9-H ) :   0.9501 B( 10-C , 11-H ) :   0.9639 B( 10-C , 12-H ) :   0.9515 
B( 10-C , 13-H ) :   0.9594 B( 14-C , 15-C ) :   1.3574 B( 14-C , 23-C ) :   1.4151 
B( 15-C , 16-H ) :   0.9406 B( 15-C , 17-C ) :   1.3581 B( 17-C , 18-H ) :   0.9475 
B( 17-C , 19-C ) :   1.3819 B( 19-C , 20-H ) :   0.9449 B( 19-C , 21-C ) :   1.4237 
B( 21-C , 22-H ) :   0.9433 B( 21-C , 23-C ) :   1.2319 B( 26-C , 27-O ) :   2.1179 


-------
TIMINGS
-------

Total SCF time: 0 days 0 hours 0 min 7 sec 

Total time                  ....       7.444 sec
Sum of individual times     ....       6.571 sec  ( 88.3%)

SCF preparation             ....       2.219 sec  ( 29.8%)
Fock matrix formation       ....       3.188 sec  ( 42.8%)
  Startup                   ....       0.194 sec  (  6.1% of F)
  Split-RI-J                ....       0.570 sec  ( 17.9% of F)
  XC integration            ....       2.207 sec  ( 69.2% of F)
    Basis function eval.    ....       0.151 sec  (  6.8% of XC)
    Density eval.           ....       0.430 sec  ( 19.5% of XC)
    XC-Functional eval.     ....       0.060 sec  (  2.7% of XC)
    XC-Potential eval.      ....       0.522 sec  ( 23.6% of XC)
Diagonalization             ....       0.000 sec  (  0.0%)
Density matrix formation    ....       0.176 sec  (  2.4%)
Total Energy calculation    ....       0.070 sec  (  0.9%)
Population analysis         ....       0.225 sec  (  3.0%)
Orbital Transformation      ....       0.162 sec  (  2.2%)
Orbital Orthonormalization  ....       0.000 sec  (  0.0%)
DIIS solution               ....       0.194 sec  (  2.6%)
SOSCF solution              ....       0.337 sec  (  4.5%)
Finished LeanSCF after   7.5 sec

Maximum memory used throughout the entire LEANSCF-calculation: 43.8 MB


-------------------------------------------------------------------------------
                          DFT DISPERSION CORRECTION                            
                                                                               
                                DFTD4 V3.4.0                                   
-------------------------------------------------------------------------------
The R2SCAN3C composite method is recognized
Using three-body term ABC
Active option DFTDOPT                   ...         5   

-------------------------   ----------------
Dispersion correction           -0.014913248
-------------------------   ----------------

------------------   -----------------
gCP correction             0.013645911
------------------   -----------------

-------------------------   --------------------
FINAL SINGLE POINT ENERGY     -1592.178735714433
-------------------------   --------------------



           ************************************************************
           *        Program running with 20 parallel MPI-processes    *
[...]
Current gradient norm                   ....     0.000467992 Eh/bohr
Maximum allowed component of the step   ....  0.300
Current trust radius                    ....  0.100
Updating the Hessian (BFGS)             .... done
Forming the augmented Hessian           .... done
Diagonalizing the augmented Hessian     .... done
Last element of RFO vector              ....  0.999967802
Lowest eigenvalues of augmented Hessian:
 -0.000000734  0.004737589  0.009438473  0.010752219  0.011232290
Length of the computed step             ....  0.008024933
The final length of the internal step   ....  0.008024933
Converting the step to Cartesian space:
 Initial RMS(Int)=    0.0006641482
Transforming coordinates:
 Iter   0:  RMS(Cart)=    0.0008521383 RMS(Int)=    0.0006391914
 Iter   5:  RMS(Cart)=    0.0000063847 RMS(Int)=    0.0000031824
 Iter  10:  RMS(Cart)=    0.0000002000 RMS(Int)=    0.0000000997
done
Storing new coordinates                 .... done
The predicted energy change is          ....    -0.000000367
Previously predicted energy change      ....    -0.000000549
Actually observed energy change         ....    -0.000001313
Ratio of predicted to observed change   ....     2.391002785
New trust radius                        ....     0.100000000

                                .--------------------.
          ----------------------|Geometry convergence|-------------------------
          Item                value                   Tolerance       Converged
          ---------------------------------------------------------------------
          Energy change      -0.0000013130            0.0000050000      YES
          RMS gradient        0.0000258663            0.0001000000      YES
          MAX gradient        0.0001141359            0.0003000000      YES
          RMS step            0.0006641482            0.0020000000      YES
          MAX step            0.0062423460            0.0040000000      NO
          ........................................................
          Max(Bonds)      0.0002      Max(Angles)    0.14
          Max(Dihed)        0.36      Max(Improp)    0.00
          ---------------------------------------------------------------------

The optimization has not yet converged - more geometry cycles are needed


    ---------------------------------------------------------------------------
                         Redundant Internal Coordinates
                            (Angstroem and degrees)

        Definition                    Value    dE/dq     Step     New-Value
    ----------------------------------------------------------------------------
     1. B(O   1,Ru  0)                2.2765 -0.000016  0.0002    2.2767   
     2. B(C   2,Ru  0)                1.8500  0.000029 -0.0000    1.8500   
     3. B(H   3,C   2)                1.0926  0.000002  0.0000    1.0926   
     4. B(C   4,O   1)                1.4772 -0.000072  0.0001    1.4772   
     5. B(H   5,C   4)                1.0973  0.000005 -0.0000    1.0973   
     6. B(C   6,C   4)                1.5174 -0.000007 -0.0000    1.5174   
     7. B(H   7,C   6)                1.0931 -0.000010  0.0000    1.0931   
     8. B(H   8,C   6)                1.0948 -0.000013  0.0000    1.0948   
     9. B(H   9,C   6)                1.0931 -0.000017  0.0000    1.0931   
    10. B(C  10,C   4)                1.5133  0.000030 -0.0000    1.5133   
    11. B(H  11,C  10)                1.0954  0.000002  0.0000    1.0954   
    12. B(H  12,C  10)                1.0943 -0.000005 -0.0000    1.0943   
    13. B(H  13,C  10)                1.0922 -0.000001 -0.0000    1.0922   
    14. B(C  14,O   1)                1.3645 -0.000017 -0.0000    1.3644   
    15. B(C  15,C  14)                1.3888 -0.000009 -0.0000    1.3888   
    16. B(H  16,C  15)                1.0827 -0.000005 -0.0000    1.0827   
    17. B(C  17,C  15)                1.3934 -0.000050  0.0000    1.3934   
    18. B(H  18,C  17)                1.0859 -0.000013  0.0000    1.0859   
    19. B(C  19,C  17)                1.3945 -0.000027 -0.0000    1.3945   
    20. B(H  20,C  19)                1.0849 -0.000019  0.0000    1.0849   
    21. B(C  21,C  19)                1.3839 -0.000046  0.0000    1.3839   
    22. B(H  22,C  21)                1.0864 -0.000024  0.0000    1.0864   
    23. B(C  23,C  21)                1.4061  0.000007  0.0000    1.4061   
    24. B(C  23,C  14)                1.4136  0.000038  0.0001    1.4137   
    25. B(C  23,C   2)                1.4299 -0.000075 -0.0000    1.4298   
    26. B(Cl 24,Ru  0)                2.3181 -0.000022 -0.0001    2.3180   
    27. B(Cl 25,Ru  0)                2.3246  0.000026 -0.0000    2.3246   
    28. B(C  26,Ru  0)                1.8071  0.000070 -0.0001    1.8070   
    29. B(O  27,C  26)                1.1519 -0.000064  0.0000    1.1519   
    30. A(C   2,Ru  0,Cl 25)          105.94  0.000001    0.00    105.95   
    31. A(O   1,Ru  0,Cl 25)           88.47  0.000039    0.01     88.48   
    32. A(O   1,Ru  0,C  26)          171.72 -0.000010   -0.02    171.70   
    33. A(O   1,Ru  0,C   2)           79.33  0.000009   -0.00     79.33   
    34. A(Cl 24,Ru  0,C  26)           94.24  0.000088   -0.03     94.20   
    35. A(C   2,Ru  0,C  26)           92.39 -0.000019   -0.02     92.37   
    36. A(Cl 24,Ru  0,Cl 25)          148.66 -0.000006    0.00    148.66   
    37. A(C   2,Ru  0,Cl 24)          103.93 -0.000005   -0.01    103.93   
    38. A(O   1,Ru  0,Cl 24)           87.92 -0.000079   -0.01     87.91   
    39. A(Cl 25,Ru  0,C  26)           93.77 -0.000043    0.05     93.81   
    40. A(Ru  0,O   1,C  14)          109.55 -0.000012    0.00    109.55   
    41. A(Ru  0,O   1,C   4)          129.89 -0.000038    0.00    129.89   
    42. A(C   4,O   1,C  14)          120.19  0.000049   -0.01    120.19   
    43. A(H   3,C   2,C  23)          117.38 -0.000023    0.00    117.38   
    44. A(Ru  0,C   2,C  23)          118.37 -0.000010    0.01    118.38   
    45. A(Ru  0,C   2,H   3)          124.23  0.000033   -0.01    124.22   
    46. A(C   6,C   4,C  10)          113.13  0.000018   -0.00    113.13   
    47. A(H   5,C   4,C  10)          109.25 -0.000002    0.00    109.25   
    48. A(O   1,C   4,C   6)          109.61 -0.000015    0.01    109.61   
    49. A(O   1,C   4,C  10)          106.77 -0.000028   -0.00    106.76   
    50. A(O   1,C   4,H   5)          105.96  0.000033   -0.01    105.94   
    51. A(H   5,C   4,C   6)          111.76 -0.000007    0.01    111.77   
    52. A(C   4,C   6,H   7)          112.11 -0.000036    0.01    112.12   
    53. A(H   8,C   6,H   9)          109.06  0.000019   -0.01    109.05   
    54. A(H   7,C   6,H   9)          108.51 -0.000016    0.01    108.52   
    55. A(C   4,C   6,H   9)          109.79  0.000010   -0.01    109.78   
    56. A(C   4,C   6,H   8)          109.09  0.000017    0.00    109.09   
    57. A(H   7,C   6,H   8)          108.23  0.000006   -0.00    108.23   
    58. A(H  12,C  10,H  13)          108.88 -0.000034    0.02    108.90   
    59. A(H  11,C  10,H  13)          109.49  0.000028   -0.01    109.47   
    60. A(C   4,C  10,H  13)          111.26 -0.000018    0.01    111.27   
    61. A(H  11,C  10,H  12)          107.89  0.000009   -0.01    107.88   
    62. A(C   4,C  10,H  12)          108.55 -0.000013    0.01    108.56   
    63. A(C   4,C  10,H  11)          110.69  0.000028   -0.01    110.68   
    64. A(O   1,C  14,C  15)          125.37  0.000001    0.00    125.37   
    65. A(C  15,C  14,C  23)          120.98 -0.000006   -0.00    120.98   
    66. A(O   1,C  14,C  23)          113.65  0.000005   -0.00    113.64   
    67. A(H  16,C  15,C  17)          119.56  0.000002    0.00    119.56   
    68. A(C  14,C  15,C  17)          118.77 -0.000010   -0.00    118.77   
    69. A(C  14,C  15,H  16)          121.67  0.000008   -0.00    121.66   
    70. A(H  18,C  17,C  19)          119.82 -0.000001   -0.00    119.81   
    71. A(C  15,C  17,C  19)          121.43  0.000019    0.00    121.43   
    72. A(C  15,C  17,H  18)          118.75 -0.000017    0.00    118.75   
    73. A(C  17,C  19,H  20)          120.17 -0.000003   -0.00    120.16   
    74. A(H  20,C  19,C  21)          120.29 -0.000017    0.00    120.29   
    75. A(C  17,C  19,C  21)          119.54  0.000019    0.00    119.54   
    76. A(H  22,C  21,C  23)          118.65  0.000014    0.00    118.66   
    77. A(C  19,C  21,C  23)          120.59 -0.000016   -0.00    120.59   
    78. A(C  19,C  21,H  22)          120.75  0.000002    0.00    120.75   
    79. A(C  14,C  23,C  21)          118.68 -0.000006    0.00    118.68   
    80. A(C   2,C  23,C  21)          122.30 -0.000004   -0.00    122.30   
    81. A(C   2,C  23,C  14)          119.01  0.000010    0.00    119.01   
    82. L(Ru  0,C  26,O  27,Cl 24, 2) 182.97 -0.000114    0.14    183.11   
    83. L(Ru  0,C  26,O  27,Cl 24, 1) 180.70 -0.000020   -0.01    180.69   
    84. D(C  14,O   1,Ru  0,C   2)     -2.65  0.000008    0.05     -2.60   
    85. D(C   4,O   1,Ru  0,C  26)    169.55 -0.000035    0.36    169.91   
    86. D(C   4,O   1,Ru  0,C   2)    170.26  0.000005    0.01    170.26   
    87. D(C  14,O   1,Ru  0,Cl 25)   -109.19  0.000015    0.04   -109.15   
    88. D(C  14,O   1,Ru  0,Cl 24)    101.95  0.000017    0.04    101.99   
    89. D(C   4,O   1,Ru  0,Cl 25)     63.72  0.000013    0.00     63.72   
    90. D(C   4,O   1,Ru  0,Cl 24)    -85.14  0.000015    0.00    -85.14   
    91. D(C  23,C   2,Ru  0,Cl 25)     87.78  0.000033   -0.04     87.75   
    92. D(C  23,C   2,Ru  0,O   1)      2.49 -0.000011   -0.04      2.45   
    93. D(H   3,C   2,Ru  0,C  26)      0.78 -0.000025    0.02      0.79   
    94. D(C  23,C   2,Ru  0,Cl 24)    -82.64  0.000069   -0.03    -82.68   
    95. D(H   3,C   2,Ru  0,O   1)   -179.12 -0.000019   -0.03   -179.15   
    96. D(H   3,C   2,Ru  0,Cl 25)    -93.83  0.000025   -0.03    -93.86   
    97. D(H   3,C   2,Ru  0,Cl 24)     95.74  0.000061   -0.02     95.72   
    98. D(H   5,C   4,O   1,Ru  0)    139.39  0.000001    0.03    139.42   
    99. D(C  10,C   4,O   1,Ru  0)     23.01  0.000001    0.03     23.05   
   100. D(C   6,C   4,O   1,C  14)     72.40 -0.000003   -0.01     72.39   
   101. D(C   6,C   4,O   1,Ru  0)    -99.86  0.000004    0.04    -99.83   
   102. D(H   5,C   4,O   1,C  14)    -48.34 -0.000006   -0.01    -48.36   
   103. D(H   8,C   6,C   4,C  10)     64.96  0.000017   -0.05     64.91   
   104. D(H   8,C   6,C   4,H   5)    -58.87  0.000011   -0.05    -58.92   
   105. D(H   8,C   6,C   4,O   1)   -176.02 -0.000017   -0.05   -176.07   
   106. D(H   7,C   6,C   4,C  10)   -175.18  0.000013   -0.04   -175.23   
   107. D(H   7,C   6,C   4,H   5)     61.00  0.000008   -0.05     60.95   
   108. D(H   7,C   6,C   4,O   1)    -56.16 -0.000020   -0.04    -56.20   
   109. D(H  12,C  10,C   4,H   5)     63.21 -0.000027    0.07     63.28   
   110. D(H  11,C  10,C   4,C   6)     56.26 -0.000010    0.04     56.30   
   111. D(H  12,C  10,C   4,O   1)    177.37 -0.000003    0.06    177.43   
   112. D(H  11,C  10,C   4,H   5)   -178.55 -0.000008    0.05   -178.50   
   113. D(H  11,C  10,C   4,O   1)    -64.39  0.000016    0.04    -64.35   
   114. D(H  12,C  10,C   4,C   6)    -61.98 -0.000030    0.06    -61.92   
   115. D(C  23,C  14,O   1,C   4)   -171.51  0.000007   -0.01   -171.52   
   116. D(C  23,C  14,O   1,Ru  0)      2.19 -0.000002   -0.04      2.15   
   117. D(C  15,C  14,O   1,C   4)      9.42  0.000007   -0.01      9.42   
   118. D(C  15,C  14,O   1,Ru  0)   -176.87 -0.000002   -0.04   -176.91   
   119. D(C  17,C  15,C  14,C  23)      0.10  0.000003   -0.00      0.10   
   120. D(C  17,C  15,C  14,O   1)    179.10  0.000003    0.00    179.10   
   121. D(H  16,C  15,C  14,C  23)   -179.96 -0.000000    0.01   -179.95   
   122. D(H  16,C  15,C  14,O   1)     -0.96  0.000000    0.01     -0.95   
   123. D(C  19,C  17,C  15,H  16)   -179.77  0.000001   -0.01   -179.78   
   124. D(C  19,C  17,C  15,C  14)      0.18 -0.000002   -0.00      0.18   
   125. D(H  18,C  17,C  15,H  16)      0.19  0.000002   -0.01      0.18   
   126. D(H  18,C  17,C  15,C  14)   -179.86 -0.000000   -0.00   -179.87   
   127. D(C  21,C  19,C  17,H  18)    179.76 -0.000002   -0.00    179.76   
   128. D(C  21,C  19,C  17,C  15)     -0.28 -0.000000   -0.00     -0.28   
   129. D(H  20,C  19,C  17,H  18)     -0.08 -0.000000   -0.00     -0.08   
   130. D(H  20,C  19,C  17,C  15)    179.88  0.000001   -0.00    179.88   
   131. D(C  23,C  21,C  19,H  20)    179.94  0.000001    0.01    179.95   
   132. D(C  23,C  21,C  19,C  17)      0.10  0.000002    0.00      0.10   
   133. D(H  22,C  21,C  19,H  20)      0.19  0.000002    0.01      0.20   
   134. D(H  22,C  21,C  19,C  17)   -179.65  0.000004    0.00   -179.65   
   135. D(C  14,C  23,C  21,C  19)      0.16 -0.000002   -0.00      0.16   
   136. D(C   2,C  23,C  21,H  22)      0.99  0.000003   -0.02      0.98   
   137. D(C   2,C  23,C  21,C  19)   -178.76  0.000004   -0.01   -178.78   
   138. D(C  21,C  23,C  14,C  15)     -0.27 -0.000000    0.00     -0.26   
   139. D(C  21,C  23,C  14,O   1)   -179.38 -0.000001    0.00   -179.37   
   140. D(C   2,C  23,C  14,C  15)    178.70 -0.000006    0.01    178.71   
   141. D(C   2,C  23,C  14,O   1)     -0.41 -0.000007    0.01     -0.40   
   142. D(C  21,C  23,C   2,H   3)     -1.75  0.000015    0.04     -1.72   
   143. D(C  21,C  23,C   2,Ru  0)    176.74  0.000008    0.04    176.79   
   144. D(C  14,C  23,C   2,H   3)    179.32  0.000021    0.03    179.35   
   145. D(C  14,C  23,C  21,H  22)    179.92 -0.000003   -0.00    179.92   
   146. D(C  14,C  23,C   2,Ru  0)     -2.18  0.000014    0.03     -2.15   
    ----------------------------------------------------------------------------

Geometry step timings:
Preparation and reading OPT file:      0.004 s (13.893 %)
Internal coordinates            :      0.000 s ( 0.140 %)
B/P matrices and projection     :      0.006 s (22.683 %)
Hessian update/contruction      :      0.008 s (28.544 %)
Making the step                 :      0.003 s (10.145 %)
Converting the step to Cartesian:      0.000 s ( 1.628 %)
Storing new data                :      0.002 s ( 8.900 %)
Checking convergence            :      0.000 s ( 0.178 %)
Final printing                  :      0.004 s (13.878 %)
Total time                      :      0.026 s

Time for energy+gradient        :     39.334 s
Time for complete geometry iter :     41.614 s




    ----------------------------------------------------------------------------
                                  WARNING !!!
       The optimization did not converge but reached the maximum number of
       optimization cycles.
       Please check your results very carefully.
    ----------------------------------------------------------------------------



--------------------------------
SUGGESTED CITATIONS FOR THIS RUN
--------------------------------

Below you find a list of papers that are relevant to this ORCA run
We neither can nor want to force you to cite these papers, but we appreciate if you do
You receive ORCA, which is the product of decades of hard work by many enthusiastic individuals, for free
The only thing we kindly ask in return is that you cite our papers,
We deeply appreciate it, if you show your appreciation for ORCA by not just citing the generic ORCA reference.

Please note that relegating all ORCA citations to the supporting information does *not* help us.
SI sections are not indexed - citations you put there will not count into any citation statistics
But we need these citations in order to attract the funding resources that allow us to do what we are doing

Therefore, if you are a happy ORCA user, please consider citing a few of the papers listed below in the main body of your paper

In addition to the list printed below, the program has created the file cli47.bibtex that contains the list in bibtex format
You can import this file easily into all common literature databanks and citation aid programs


List of essential papers. We consider these as the minimum necessary citations

  1. Neese,F.
     Software update: the ORCA program system, version 5.0
     WIRES Comput. Molec. Sci., 2022 12(1)e1606
     doi.org/10.1002/wcms.1606
  2. Grimme,S.; Hansen,A.; Ehlert,S.; Mewes,J.
     r2SCAN-3c: A 'Swiss army knife' composite electronic-structure method
     J. Chem. Phys., 2021 154 064103
     doi.org/10.1063/5.0040021

List of papers to cite with high priority. The work reported in these papers was absolutely
necessary for this run to complete.
Our perspective: the developers of density functionals and basis sets usually get cited in chemistry papers
Good! But without the algorithms to do something with them, the functionals or basis sets would not do anything.
Hence, in our opinion, the algorithm design and method developments papers are equally worthy of getting cited

  1. Neese,F.
     An improvement of the resolution of the identity approximation for the formation of the Coulomb matrix
     J. Comp. Chem., 2003 24(14)1740-1747
     doi.org/10.1002/jcc.10318
  2. Neese,F.
     The SHARK Integral Generation and Digestion System
     J. Comp. Chem., 2022  1-16
     doi.org/10.1002/jcc.26942
  3. Lehtola,S.; Steigemann,C.; Oliveira,M.; Marques,M.
     Recent developments in Libxc - A comprehensive library of functionals for density functional theory
     Software X, 2018 7 
     doi.org/10.1016/j.softx.2017.11.002
  4. Caldeweyher,E.; Bannwarth,C.; Grimme,S.
     Extension of the D3 dispersion coefficient model
     J. Chem. Phys., 2017 147 034112
     doi.org/10.1063/1.4993215
  5. Caldeweyher,E.; Ehlert,S.; Hansen,A.; Neugebauer,H.; Spicher,S.; Bannwarth,C.; Grimme,S.
     A generally applicable atomic-charge dependent London dispersion correction
     J. Chem. Phys., 2019 150 154122
     doi.org/10.1063/1.5090222
  6. Caldeweyher,E.; Mewes,J.; Ehlert,S.; Grimme,S.
     Extension and evaluation of the D4 London-dispersion model for periodic systems
     Phys. Chem. Chem. Phys., 2020 22(16)8499-8512
     doi.org/10.1039/D0CP00502A
  7. Wittmann,L.; Gordiy,I.; Friede,M.; Helmich-Paris,B.; Grimme,S.; Hansen,A.; Bursch,M.
     Extension of the D3 and D4 London Dispersion Corrections to the full Actinides Series
     Phys. Chem. Chem. Phys., 2024 26(32)21379-21394
     doi.org/https://doi.org/10.1039/D4CP01514B 

List of suggested additional citations. These are papers that are important in the 'surrounding' of 
of this run, or papers that preceded the highly important papers. If you like your results we are grateful for a citation.

  1. Neese,F.
     The ORCA program system
     WIRES Comput. Molec. Sci., 2012 2(1)73-78
     doi.org/10.1002/wcms.81
  2. Neese,F.
     Software update: the ORCA program system, version 4.0
     WIRES Comput. Molec. Sci., 2018 8(1)1-6
     doi.org/10.1002/wcms.1327
  3. Neese,F.; Wennmohs,F.; Becker,U.; Riplinger,C.
     The ORCA quantum chemistry program package
     J. Chem. Phys., 2020 152 Art. No. L224108
     doi.org/10.1063/5.0004608

List of optional additional citations

  1. Neese,F.
     Approximate second-order SCF convergence for spin unrestricted wavefunctions
     Chem. Phys. Lett., 2000 325(1-3)93-98
     doi.org/10.1016/s0009-2614(00)00662-x

Timings for individual modules:

Sum of individual times          ...      370.031 sec (=   6.167 min)
Startup calculation              ...       53.630 sec (=   0.894 min)  14.5 %
SCF iterations                   ...      229.810 sec (=   3.830 min)  62.1 %
SCF Gradient evaluation          ...       85.966 sec (=   1.433 min)  23.2 %
Geometry relaxation              ...        0.625 sec (=   0.010 min)   0.2 %
                             ****ORCA TERMINATED NORMALLY****
TOTAL RUN TIME: 0 days 0 hours 6 minutes 35 seconds 82 msec
3749.40user 752.89system 6:35.20elapsed 1139%CPU (0avgtext+0avgdata 398276maxresident)k
125371069inputs+6453971outputs (588637major+39407157minor)pagefaults 0swaps
