
                                 *****************
                                 * O   R   C   A *
                                 *****************

                                            #,                                       
                                            ###                                      
                                            ####                                     
                                            #####                                    
                                            ######                                   
                                           ########,                                 
                                     ,,################,,,,,                         
                               ,,#################################,,                 
                          ,,##########################################,,             
                       ,#########################################, ''#####,          
                    ,#############################################,,   '####,        
                  ,##################################################,,,,####,       
                ,###########''''           ''''###############################       
              ,#####''   ,,,,##########,,,,          '''####'''          '####       
            ,##' ,,,,###########################,,,                        '##       
           ' ,,###''''                  '''############,,,                           
         ,,##''                                '''############,,,,        ,,,,,,###''
      ,#''                                            '''#######################'''  
     '                                                          ''''####''''         
             ,#######,   #######,   ,#######,      ##                                
            ,#'     '#,  ##    ##  ,#'     '#,    #''#        ,####,   ,####,        
            ##       ##  ##   ,#'  ##            #'  '#       #'       #'  '#        
            ##       ##  #######   ##           ,######,      #####,   #    #        
            '#,     ,#'  ##    ##  '#,     ,#' ,#      #,     #,   #   #,  ,#        
             '#######'   ##     ##  '#######'  #'      '#     '####' # '####'        



                #########################################################
                #                        -***-                          #
                #          Department of theory and spectroscopy        #
                #                                                       #
                #                      Frank Neese                      #
                #                                                       #
                #     Directorship, Architecture, Infrastructure        #
                #                    SHARK, DRIVERS                     #
                #        Core code/Algorithms in most modules           #
                #                                                       #
                #        Max Planck Institute fuer Kohlenforschung      #
                #                Kaiser Wilhelm Platz 1                 #
                #                 D-45470 Muelheim/Ruhr                 #
                #                      Germany                          #
                #                                                       #
                #                  All rights reserved                  #
                #                        -***-                          #
                #########################################################


                         Program Version 6.0.1  -  RELEASE   -


 With contributions from (in alphabetic order):
[Max-Planck-Institut fuer Kohlenforschung]                               
  Daniel Aravena         : Magnetic Suceptibility                        
  Michael Atanasov       : Ab Initio Ligand Field Theory (pilot matlab implementation)
  Alexander A. Auer      : GIAO ZORA, VPT2 properties, NMR spectrum      
  Ute Becker             : All parallelization in ORCA, NUMFREQ, NUMCALC 
  Giovanni Bistoni       : ED, misc. LED, open-shell LED, HFLD           
  Martin Brehm           : Molecular dynamics                            
  Dmytro Bykov           : pre 5.0 version of the SCF Hessian            
  Marcos Casanova-Páez   : Triplet and SCS-CIS(D). UHF-(DLPNO)-IP/EA/STEOM-CCSD. UHF-CVS-IP/STEOM-CCSD   
  Vijay G. Chilkuri      : MRCI spin determinant printing, contributions to CSF-ICE 
  Pauline Colinet        : FMM embedding                                 
  Dipayan Datta          : RHF DLPNO-CCSD density                        
  Achintya Kumar Dutta   : EOM-CC, STEOM-CC                              
  Nicolas Foglia         : Exact transition moments, OPA infrastructure, MCD improvements    
  Dmitry Ganyushin       : Spin-Orbit,Spin-Spin,Magnetic field MRCI      
  Miquel Garcia-Rates    : C-PCM and meta-GGA Hessian, CCSD/C-PCM, Gaussian charge scheme 
  Tiago L. C. Gouveia    : GS-ROHF, GS-ROCIS                             
  Yang Guo               : DLPNO-NEVPT2, F12-NEVPT2, CIM, IAO-localization        
  Andreas Hansen         : Spin unrestricted coupled pair/coupled cluster methods 
  Ingolf Harden          : AUTO-CI MPn and infrastructure                
  Benjamin Helmich-Paris : MC-RPA, TRAH-(SCF,CASSCF), AVAS, COSX integrals, SCF dyn. polar. 
  Lee Huntington         : MR-EOM, pCC                                   
  Robert Izsak           : Overlap fitted RIJCOSX, COSX-SCS-MP3, EOM     
  Riya Kayal             : Wick's Theorem for AUTO-CI, AUTO-CI UHF-CCSDT 
  Emily Kempfer          : AUTO-CI, RHF CISDT and CCSDT                  
  Christian Kollmar      : KDIIS, OOCD, Brueckner-CCSD(T), CCSD density, CASPT2, CASPT2-K, improved NEVPT2 
  Axel Koslowski         : Symmetry handling                             
  Simone Kossmann        : meta-GGA functionals, TD-DFT gradient, OOMP2, (MP2 Hessian; deprecated post 5.0) 
  Lucas Lang             : DCDCAS                                        
  Marvin Lechner         : AUTO-CI (C++ implementation), FIC-MRCC        
  Spencer Leger          : CASSCF response                               
  Dagmar Lenk            : GEPOL surface, SMD, ORCA-2-JSON               
  Dimitrios Liakos       : Extrapolation schemes; Compound Job, initial MDCI parallelization 
  Dimitrios Manganas     : Further ROCIS development; embedding schemes. LFT, Crystal Embedding 
  Dimitrios Pantazis     : SARC Basis sets                               
  Anastasios Papadopoulos: AUTO-CI, single reference methods and gradients 
  Taras Petrenko         : pre 6.0 DFT Hessian and TD-DFT gradient, (ASA, deprecated), ECA, 1-Electron XAS/XES, NRVS 
  Peter Pinski           : DLPNO-MP2, DLPNO-MP2 Gradient                 
  Christoph Reimann      : Effective Core Potentials                     
  Marius Retegan         : Local ZFS, SOC                                
  Christoph Riplinger    : Optimizer, TS searches, QM/MM, DLPNO-CCSD(T), (RO)-DLPNO pert. Triples 
  Michael Roemelt        : Original ROCIS implementation                 
  Masaaki Saitow         : Open-shell DLPNO-CCSD energy and density      
  Barbara Sandhoefer     : DKH picture change effects                    
  Kantharuban Sivalingam : CASSCF convergence/infrastructure, NEVPT2 and variants, FIC-MRCI 
  Bernardo de Souza      : ESD, SOC TD-DFT                               
  Georgi L. Stoychev     : AutoAux, RI-MP2 NMR, DLPNO-MP2 response, X2C  
  Van Anh Tran           : RI-MP2 g-tensors                              
  Willem Van den Heuvel  : Paramagnetic NMR                              
  Zikuan Wang            : NOTCH, Electric field optimization            
  Frank Wennmohs         : Technical directorship and infrastructure     
  Hang Xu                : AUTO-CI-Response properties                   
                                                                         
[FACCTs GmbH]                                                            
  Markus Bursch, Miquel Garcia-Rates, Christoph Riplinger, Bernardo de Souza, Georgi L. Stoychev 
                                                                 
  APM, Basis sets (HGBS, AHGBS, def-TZVP (Ac-Lr), def2-XVPD (La-Lu)), CI-OPT, improved COSX, DLPNO-Multilevel,           
  DOCKER, DRACO, updates on ESD, GOAT, IRC, LR-CPCM, MBIS, meta-GGA TD-DFT gradient, ML-optimized integration grids, 
  MM, NACMEs, nearIR, NEB, NEB-TS, NL-DFT gradient (VV10), 2- and 3-layer-ONIOM, interface openCOSMO-RS, QMMM,   
  Crystal-QMMM, SF, symmetry and pop. for TD-DFT, r2SCAN hybrids, SOLVATOR                                   
                                                                         
[Other institutions]                                                     
  V. Asgeirsson          : NEB                                           
  Christoph Bannwarth    : sTDA-DFT, sTD-DFT, PBEh-3c, B97-3c, D3        
  Sebastian Ehlert       : rSCAN, r2SCAN, r2SCAN-3c, D4, dhf basis sets  
  Marvin Friede          : D4 for Fr, Ra, Ac-Lr                          
  Lars Goerigk           : TD-DFT with DH, B97 family of functionals     
  Stefan Grimme          : VdW corrections, initial TS optimization, DFT functionals, gCP, sTDA/sTD-DF 
  Waldemar Hujo          : DFT-NL                                        
  H. Jonsson             : NEB                                           
  Holger Kruse           : gCP                                           
  Marcel Mueller         : wB97X-3c, vDZP basis set                      
  Hagen Neugebauer       : wr2SCAN                                       
  Tobias Risthaus        : range-separated hybrid DFT                    
  Lukas Wittmann         : regularized MP2, r2SCAN double-hybrids, wr2SCAN        
                                                                         
We gratefully acknowledge several colleagues who have allowed us to      
interface, adapt or use parts of their codes:                            
  Ed Valeev, F. Pavosevic, A. Kumar             : LibInt (2-el integral package), F12 methods 
  Garnet Chan, S. Sharma, J. Yang, R. Olivares  : DMRG                   
  Ulf Ekstrom                                   : XCFun DFT Library      
  Mihaly Kallay                                 : mrcc  (arbitrary order and MRCC methods)
  Frank Weinhold                                : gennbo (NPA and NBO analysis)           
  Simon Mueller                                 : openCOSMO-RS                            
  Christopher J. Cramer and Donald G. Truhlar   : smd solvation model                     
  S Lehtola, MJT Oliveira, MAL Marques          : LibXC Library                           
  Liviu Ungur et al                             : ANISO software                          


 Your calculation uses the libint2 library for the computation of 2-el integrals
 For citations please refer to: http://libint.valeyev.net

 Your ORCA version has been built with support for libXC version: 6.2.2
 For citations please refer to: https://libxc.gitlab.io

 This ORCA versions uses:
   CBLAS   interface :  Fast vector & matrix operations
   LAPACKE interface :  Fast linear algebra routines
   SCALAPACK package :  Parallel linear algebra routines
   Shared memory     :  Shared parallel matrices
   BLAS/LAPACK       :  OpenBLAS 0.3.27  USE64BITINT DYNAMIC_ARCH NO_AFFINITY SkylakeX SINGLE_THREADED
        Core in use  :  SkylakeX
   Copyright (c) 2011-2014, The OpenBLAS Project


NOTE: MaxCore=1400 MB was set to SCF,MP2,MDCI,CIPSI,MRCI and CIS
      => If you want to overwrite this, your respective input block should be placed after the MaxCore statement
NOTE: MaxCore=1400 MB was set to SCF,MP2,MDCI,CIPSI,MRCI and CIS
      => If you want to overwrite this, your respective input block should be placed after the MaxCore statement
================================================================================

cite the ECPs for Ru [Def2-ECP] as follows:
Ce-Yb(ecp-28): M. Dolg, H. Stoll, H.Preuss, J. Chem. Phys., 1989, 90, 1730-1734.
Y-Cd(ecp-28), Hf-Hg(ecp-46): D. Andrae,U. Haeussermann, M. Dolg, H. Stoll, H. Preuss, Theor. Chim. Acta, 1990, 77, 123-141.
In-Sb(ecp-28), Tl-Bi(ecp-46): B. Metz, H. Stoll, M. Dolg, J. Chem. Phys., 2000, 113, 2563-2569.
Te-Xe(ecp-28), Po-Rn(ecp-46): K. A. Peterson, D. Figgen, E. Goll, H. Stoll, M. Dolg, J. Chem. Phys., 2003, 119, 11113-11123.
Rb(ecp-28), Cs(ecp-46): T. Leininger, A. Nicklass, W. Kuechle, H. Stoll, M. Dolg, A. Bergner, Chem. Phys. Lett., 1996, 255, 274-280.
Sr(ecp-28), Ba(ecp-46): M. Kaupp, P. V. Schleyer, H. Stoll and H. Preuss, J. Chem. Phys., 1991, 94, 1360-1366.
La(ecp-46): M. Dolg, H. Stoll, A. Savin, H. Preuss, Theor. Chim. Acta, 1989, 75, 173-194.
Lu(ecp-28): X. Cao, M. Dolg, J. Chem. Phys., 2001, 115, 7348-7355.

ECP parameters for Ru [Def2-ECP] have been obtained from:
TURBOMOLE (7.0.2)

----- Orbital basis set information -----
Your calculation utilizes the basis: def2-SVP
   F. Weigend and R. Ahlrichs, Phys. Chem. Chem. Phys. 7, 3297 (2005).



################################################################################


                                COMPOUND JOB MainJOB 
Basename: cli48_Compound_0

################################################################################

================================================================================
                                       INPUT FILE
================================================================================
NAME = cli48_Compound_0.inp
|  1> %maxcore 1400
|  2>  %pal nprocs 20 end
|  3>  * xyz 0 1
|  4>      Ru -1.05121000 0.04128500 -0.01196000
|  5>       O 0.97262900 -0.80961200 -0.60746900
|  6>       C 0.05511100 1.46096600 0.41352200
|  7>       H -0.29215400 2.40174500 0.84709600
|  8>       C 1.34419300 -2.18492800 -0.99941200
|  9>       H 2.05009100 -2.07930600 -1.83283500
| 10>       C 1.97122500 -2.89947600 0.18318300
| 11>       H 2.83329700 -2.35839600 0.58168700
| 12>       H 2.30692500 -3.89175600 -0.13490500
| 13>       H 1.23250100 -3.01200500 0.98116200
| 14>       C 0.08105300 -2.85367200 -1.49628100
| 15>       H -0.65376900 -2.93930400 -0.68819600
| 16>       H 0.33031400 -3.86525000 -1.83075500
| 17>       H -0.35850000 -2.30193500 -2.33006700
| 18>       C 1.93988000 0.13352000 -0.41593500
| 19>       C 3.28452900 -0.01816500 -0.72878600
| 20>       H 3.67032700 -0.93838100 -1.14893200
| 21>       C 4.15247400 1.04601200 -0.49186800
| 22>       H 5.20331800 0.92792500 -0.73868800
| 23>       C 3.69892000 2.24704800 0.05239100
| 24>       H 4.39329300 3.06154800 0.23003200
| 25>       C 2.35772600 2.39301500 0.36114400
| 26>       H 1.98229800 3.32185400 0.78137700
| 27>       C 1.45227000 1.34192400 0.13239700
| 28>      Cl -1.50078700 0.33916400 -2.26716500
| 29>      Cl -1.02651000 -1.36565700 1.83840200
| 30>       C -2.53051000 0.92412800 0.53136700
| 31>       O -3.45703400 1.50540800 0.89309400
| 32>  *
| 33> 
| 34>                          ****END OF INPUT****
================================================================================
NOTE: MaxCore=1400 MB was set to SCF,MP2,MDCI,CIPSI,MRCI and CIS
      => If you want to overwrite this, your respective input block should be placed after the MaxCore statement
================================================================================

cite the ECPs for Ru [Def2-ECP] as follows:
Ce-Yb(ecp-28): M. Dolg, H. Stoll, H.Preuss, J. Chem. Phys., 1989, 90, 1730-1734.
Y-Cd(ecp-28), Hf-Hg(ecp-46): D. Andrae,U. Haeussermann, M. Dolg, H. Stoll, H. Preuss, Theor. Chim. Acta, 1990, 77, 123-141.
In-Sb(ecp-28), Tl-Bi(ecp-46): B. Metz, H. Stoll, M. Dolg, J. Chem. Phys., 2000, 113, 2563-2569.
Te-Xe(ecp-28), Po-Rn(ecp-46): K. A. Peterson, D. Figgen, E. Goll, H. Stoll, M. Dolg, J. Chem. Phys., 2003, 119, 11113-11123.
Rb(ecp-28), Cs(ecp-46): T. Leininger, A. Nicklass, W. Kuechle, H. Stoll, M. Dolg, A. Bergner, Chem. Phys. Lett., 1996, 255, 274-280.
Sr(ecp-28), Ba(ecp-46): M. Kaupp, P. V. Schleyer, H. Stoll and H. Preuss, J. Chem. Phys., 1991, 94, 1360-1366.
La(ecp-46): M. Dolg, H. Stoll, A. Savin, H. Preuss, Theor. Chim. Acta, 1989, 75, 173-194.
Lu(ecp-28): X. Cao, M. Dolg, J. Chem. Phys., 2001, 115, 7348-7355.

ECP parameters for Ru [Def2-ECP] have been obtained from:
TURBOMOLE (7.0.2)

----- Orbital basis set information -----
Your calculation utilizes the basis: def2-SVP
   F. Weigend and R. Ahlrichs, Phys. Chem. Chem. Phys. 7, 3297 (2005).



################################################################################


                                COMPOUND JOB  1 
Basename: cli48_Compound_1
NOTE: please remember that MaxCore and PAL settings will be ignored.

################################################################################

================================================================================
                                       INPUT FILE
================================================================================
NAME = cli48_Compound_1.inp
|  1>     ! RKS r2scan-3c Opt MOREAD
|  2>     %geom
|  3>       maxiter 5
|  4>     end
|  5>     %scf
|  6>       maxiter 500
|  7>     end
|  8>     %moinp "restart.gbw"
|  9> 
| 10>                          ****END OF INPUT****
================================================================================
Your calculation utilizes the geometrical counterpoise correction gCP
Please cite in your paper:
H.Kruse, S. Grimme J.Chem.Phys., 136, (2012), 154101 
   

Your calculation utilizes the atom-pairwise dispersion correction
based on EEQ partial charges (D4)


================================================================================

cite the ECPs for Ru [Def2-ECP] as follows:
Ce-Yb(ecp-28): M. Dolg, H. Stoll, H.Preuss, J. Chem. Phys., 1989, 90, 1730-1734.
Y-Cd(ecp-28), Hf-Hg(ecp-46): D. Andrae,U. Haeussermann, M. Dolg, H. Stoll, H. Preuss, Theor. Chim. Acta, 1990, 77, 123-141.
In-Sb(ecp-28), Tl-Bi(ecp-46): B. Metz, H. Stoll, M. Dolg, J. Chem. Phys., 2000, 113, 2563-2569.
Te-Xe(ecp-28), Po-Rn(ecp-46): K. A. Peterson, D. Figgen, E. Goll, H. Stoll, M. Dolg, J. Chem. Phys., 2003, 119, 11113-11123.
Rb(ecp-28), Cs(ecp-46): T. Leininger, A. Nicklass, W. Kuechle, H. Stoll, M. Dolg, A. Bergner, Chem. Phys. Lett., 1996, 255, 274-280.
Sr(ecp-28), Ba(ecp-46): M. Kaupp, P. V. Schleyer, H. Stoll and H. Preuss, J. Chem. Phys., 1991, 94, 1360-1366.
La(ecp-46): M. Dolg, H. Stoll, A. Savin, H. Preuss, Theor. Chim. Acta, 1989, 75, 173-194.
Lu(ecp-28): X. Cao, M. Dolg, J. Chem. Phys., 2001, 115, 7348-7355.
Fr-Lr(ecp-60) K. Eichkorn, F. Weigend, O. Treutler, R. Ahlrichs, Theor. Chem. Acc. 1997, 97, 119.

ECP parameters for Ru [Def2-ECP] have been obtained from:
TURBOMOLE (7.0.2)

----- Orbital basis set information -----
Your calculation utilizes the basis: def2-mTZVPP
   Stefan Grimme, Andreas Hansen, Sebastian Ehlert, and Jan-Michael Mewes 
   J. Chem. Phys. 154, 064103 (2021). DOI: 10.1063/5.0040021

----- AuxJ basis set information -----
Your calculation utilizes the basis: def2-mTZVPP/J
   Stefan Grimme, Andreas Hansen, Sebastian Ehlert, and Jan-Michael Mewes 
   J. Chem. Phys. 154, 000000 (2021). DOI: 10.1063/5.0040021

================================================================================
                                        WARNINGS
                       Please study these warnings very carefully!
================================================================================



WARNING: SCAN, rSCAN, or r2SCAN functional requested.
  ===> : libXC variant has now been activated.




                       *****************************
                       * Geometry Optimization Run *
                       *****************************

Geometry optimization settings:
Update method            Update   .... BFGS
Choice of coordinates    CoordSys .... (2022) Redundant Internals
Initial Hessian          InHess   .... Almloef's Model
Max. no of cycles        MaxIter  .... 5

Convergence Tolerances:
Energy Change            TolE     ....  5.0000e-06 Eh
Max. Gradient            TolMAXG  ....  3.0000e-04 Eh/bohr
RMS Gradient             TolRMSG  ....  1.0000e-04 Eh/bohr
Max. Displacement        TolMAXD  ....  4.0000e-03 bohr
RMS Displacement         TolRMSD  ....  2.0000e-03 bohr
Strict Convergence                .... False

------------------------------------------------------------------------------
                        ORCA OPTIMIZATION COORDINATE SETUP
------------------------------------------------------------------------------

The optimization will be done in redundant internal coordinates (2022)
Making redundant internal coordinates   ...  (2022 redundants) done
Evaluating the initial hessian          ...  (Almloef) done
Evaluating the coordinates              ...  done
Calculating the B-matrix                .... done
Calculating the G-matrix                .... done
Diagonalizing the G-matrix              .... done
Small eigenvalue found = 1.395e-02
Small eigenvalue found = 2.965e-02
The first mode is                       ....   68
The number of degrees of freedom        ....   78

    -----------------------------------------------------------------
                    Redundant Internal Coordinates


    -----------------------------------------------------------------
         Definition                    Initial Value    Approx d2E/dq
    -----------------------------------------------------------------
      1. B(O   1,Ru  0)                  2.2748         0.219485   
      2. B(C   2,Ru  0)                  1.8495         1.169058   
      3. B(H   3,C   2)                  1.0925         0.356755   
      4. B(C   4,O   1)                  1.4776         0.405681   
      5. B(H   5,C   4)                  1.0973         0.350586   
      6. B(C   6,C   4)                  1.5173         0.391379   
      7. B(H   7,C   6)                  1.0930         0.356098   
      8. B(H   8,C   6)                  1.0948         0.353861   
      9. B(H   9,C   6)                  1.0932         0.355856   
     10. B(C  10,C   4)                  1.5131         0.397431   
     11. B(H  11,C  10)                  1.0956         0.352792   
     12. B(H  12,C  10)                  1.0942         0.354574   
     13. B(H  13,C  10)                  1.0922         0.357250   
     14. B(C  14,O   1)                  1.3645         0.614637   
     15. B(C  15,C  14)                  1.3889         0.627391   
     16. B(H  16,C  15)                  1.0827         0.369937   
     17. B(C  17,C  15)                  1.3935         0.616742   
     18. B(H  18,C  17)                  1.0859         0.365590   
     19. B(C  19,C  17)                  1.3944         0.614726   
     20. B(H  20,C  19)                  1.0850         0.366840   
     21. B(C  21,C  19)                  1.3840         0.638738   
     22. B(H  22,C  21)                  1.0864         0.364882   
     23. B(C  23,C  21)                  1.4060         0.589029   
     24. B(C  23,C  14)                  1.4137         0.572607   
     25. B(C  23,C   2)                  1.4301         0.539166   
     26. B(Cl 24,Ru  0)                  2.3188         0.467767   
     27. B(Cl 25,Ru  0)                  2.3246         0.457832   
     28. B(C  26,Ru  0)                  1.8064         1.369569   
     29. B(O  27,C  26)                  1.1520         1.341334   
     30. A(C   2,Ru  0,Cl 25)          105.9686         0.605610   
     31. A(O   1,Ru  0,Cl 25)           88.4261         0.440727   
     32. A(O   1,Ru  0,C  26)          171.9560         0.521813   
     33. A(O   1,Ru  0,C   2)           79.3482         0.506580   
     34. A(Cl 24,Ru  0,C  26)           94.0698         0.627063   
     35. A(C   2,Ru  0,C  26)           92.6086         0.724708   
     36. A(Cl 24,Ru  0,Cl 25)          148.6451         0.526259   
     37. A(C   2,Ru  0,Cl 24)          103.9525         0.608126   
     38. A(O   1,Ru  0,Cl 24)           88.0481         0.442440   
     39. A(Cl 25,Ru  0,C  26)           93.7317         0.624455   
     40. A(Ru  0,O   1,C  14)          109.5962         0.399027   
     41. A(Ru  0,O   1,C   4)          129.8926         0.371202   
     42. A(C   4,O   1,C  14)          120.1558         0.396736   
     43. A(H   3,C   2,C  23)          117.4007         0.344156   
     44. A(Ru  0,C   2,C  23)          118.3776         0.534726   
     45. A(Ru  0,C   2,H   3)          124.2052         0.440103   
     46. A(C   6,C   4,C  10)          113.1269         0.370170   
     47. A(H   5,C   4,C  10)          109.2783         0.326197   
     48. A(O   1,C   4,C   6)          109.6038         0.369156   
     49. A(O   1,C   4,C  10)          106.7715         0.370131   
     50. A(O   1,C   4,H   5)          105.8818         0.325342   
     51. A(H   5,C   4,C   6)          111.8054         0.325375   
     52. A(C   4,C   6,H   7)          112.1455         0.326211   
     53. A(H   8,C   6,H   9)          109.0259         0.289504   
     54. A(H   7,C   6,H   9)          108.5284         0.289790   
     55. A(C   4,C   6,H   9)          109.7632         0.326174   
     56. A(C   4,C   6,H   8)          109.0932         0.325873   
     57. A(H   7,C   6,H   8)          108.2262         0.289535   
     58. A(H  12,C  10,H  13)          108.9867         0.289773   
     59. A(H  11,C  10,H  13)          109.4292         0.289544   
     60. A(C   4,C  10,H  13)          111.3081         0.327210   
     61. A(H  11,C  10,H  12)          107.8179         0.289203   
     62. A(C   4,C  10,H  12)          108.5899         0.326805   
     63. A(C   4,C  10,H  11)          110.6244         0.326534   
     64. A(O   1,C  14,C  15)          125.3947         0.431472   
     65. A(C  15,C  14,C  23)          120.9736         0.428821   
     66. A(O   1,C  14,C  23)          113.6257         0.424462   
     67. A(H  16,C  15,C  17)          119.5449         0.354207   
     68. A(C  14,C  15,C  17)          118.7709         0.434580   
     69. A(C  14,C  15,H  16)          121.6842         0.355237   
     70. A(H  18,C  17,C  19)          119.8117         0.353303   
     71. A(C  15,C  17,C  19)          121.4341         0.432989   
     72. A(C  15,C  17,H  18)          118.7542         0.353499   
     73. A(C  17,C  19,H  20)          120.1554         0.353507   
     74. A(H  20,C  19,C  21)          120.2987         0.355811   
     75. A(C  17,C  19,C  21)          119.5458         0.435728   
     76. A(H  22,C  21,C  23)          118.6541         0.350646   
     77. A(C  19,C  21,C  23)          120.5920         0.432393   
     78. A(C  19,C  21,H  22)          120.7535         0.355488   
     79. A(C  14,C  23,C  21)          118.6829         0.424003   
     80. A(C   2,C  23,C  21)          122.3387         0.419471   
     81. A(C   2,C  23,C  14)          118.9698         0.417363   
     82. L(Ru  0,C  26,O  27,Cl 25, 2) 178.1061         0.652155   
     83. L(Ru  0,C  26,O  27,Cl 25, 1) 179.9233         0.652155   
     84. D(C  14,O   1,Ru  0,C   2)     -2.5377         0.001743   
     85. D(C   4,O   1,Ru  0,C  26)    169.6277         0.001743   
     86. D(C   4,O   1,Ru  0,C   2)    170.4840         0.001743   
     87. D(C  14,O   1,Ru  0,Cl 25)   -109.1090         0.001743   
     88. D(C  14,O   1,Ru  0,Cl 24)    102.0522         0.001743   
     89. D(C   4,O   1,Ru  0,Cl 25)     63.9127         0.001743   
     90. D(C   4,O   1,Ru  0,Cl 24)    -84.9262         0.001743   
     91. D(C  23,C   2,Ru  0,Cl 25)     87.6255         0.007602   
     92. D(C  23,C   2,Ru  0,O   1)      2.3802         0.007602   
     93. D(H   3,C   2,Ru  0,C  26)      0.7407         0.007602   
     94. D(C  23,C   2,Ru  0,Cl 24)    -82.8910         0.007602   
     95. D(H   3,C   2,Ru  0,O   1)   -179.1394         0.007602   
     96. D(H   3,C   2,Ru  0,Cl 25)    -93.8940         0.007602   
     97. D(H   3,C   2,Ru  0,Cl 24)     95.5894         0.007602   
     98. D(H   5,C   4,O   1,Ru  0)    139.3233         0.014044   
     99. D(C  10,C   4,O   1,Ru  0)     22.9476         0.014044   
    100. D(C   6,C   4,O   1,C  14)     72.4666         0.014044   
    101. D(C   6,C   4,O   1,Ru  0)    -99.9267         0.014044   
    102. D(H   5,C   4,O   1,C  14)    -48.2834         0.014044   
    103. D(H   8,C   6,C   4,C  10)     64.9114         0.012174   
    104. D(H   8,C   6,C   4,H   5)    -58.9749         0.012174   
    105. D(H   8,C   6,C   4,O   1)   -176.0637         0.012174   
    106. D(H   7,C   6,C   4,C  10)   -175.2067         0.012174   
    107. D(H   7,C   6,C   4,H   5)     60.9071         0.012174   
    108. D(H   7,C   6,C   4,O   1)    -56.1818         0.012174   
    109. D(H  12,C  10,C   4,H   5)     63.8018         0.012538   
    110. D(H  11,C  10,C   4,C   6)     56.6750         0.012538   
    111. D(H  12,C  10,C   4,O   1)    177.8937         0.012538   
    112. D(H  11,C  10,C   4,H   5)   -178.0645         0.012538   
    113. D(H  11,C  10,C   4,O   1)    -63.9726         0.012538   
    114. D(H  12,C  10,C   4,C   6)    -61.4587         0.012538   
    115. D(C  23,C  14,O   1,C   4)   -171.7069         0.030550   
    116. D(C  23,C  14,O   1,Ru  0)      2.1042         0.030550   
    117. D(C  15,C  14,O   1,C   4)      9.1740         0.030550   
    118. D(C  15,C  14,O   1,Ru  0)   -177.0149         0.030550   
    119. D(C  17,C  15,C  14,C  23)      0.0302         0.027277   
    120. D(C  17,C  15,C  14,O   1)    179.0889         0.027277   
    121. D(H  16,C  15,C  14,C  23)    179.9903         0.027277   
    122. D(H  16,C  15,C  14,O   1)     -0.9510         0.027277   
    123. D(C  19,C  17,C  15,H  16)   -179.7619         0.026304   
    124. D(C  19,C  17,C  15,C  14)      0.1991         0.026304   
    125. D(H  18,C  17,C  15,H  16)      0.1775         0.026304   
    126. D(H  18,C  17,C  15,C  14)   -179.8615         0.026304   
    127. D(C  21,C  19,C  17,H  18)    179.8049         0.026122   
    128. D(C  21,C  19,C  17,C  15)     -0.2563         0.026122   
    129. D(H  20,C  19,C  17,H  18)     -0.0577         0.026122   
    130. D(H  20,C  19,C  17,C  15)    179.8811         0.026122   
    131. D(C  23,C  21,C  19,H  20)    179.9442         0.028339   
    132. D(C  23,C  21,C  19,C  17)      0.0818         0.028339   
    133. D(H  22,C  21,C  19,H  20)      0.1634         0.028339   
    134. D(H  22,C  21,C  19,C  17)   -179.6990         0.028339   
    135. D(C  14,C  23,C  21,C  19)      0.1394         0.023873   
    136. D(C   2,C  23,C  21,H  22)      1.0057         0.023873   
    137. D(C   2,C  23,C  21,C  19)   -178.7797         0.023873   
    138. D(C  21,C  23,C  14,C  15)     -0.1966         0.022500   
    139. D(C  21,C  23,C  14,O   1)   -179.3590         0.022500   
    140. D(C   2,C  23,C  14,C  15)    178.7595         0.022500   
    141. D(C   2,C  23,C  14,O   1)     -0.4029         0.022500   
    142. D(C  21,C  23,C   2,H   3)     -1.7442         0.019861   
    143. D(C  21,C  23,C   2,Ru  0)    176.8403         0.019861   
    144. D(C  14,C  23,C   2,H   3)    179.3397         0.019861   
    145. D(C  14,C  23,C  21,H  22)    179.9247         0.023873   
    146. D(C  14,C  23,C   2,Ru  0)     -2.0758         0.019861   
    -----------------------------------------------------------------

Number of atoms                         .... 28
Number of degrees of freedom            .... 146


         *************************************************************
         *                GEOMETRY OPTIMIZATION CYCLE   1            *
         *************************************************************
---------------------------------
CARTESIAN COORDINATES (ANGSTROEM)
---------------------------------
  Ru    -1.051210    0.041285   -0.011960
  O      0.972629   -0.809612   -0.607469
  C      0.055111    1.460966    0.413522
  H     -0.292154    2.401745    0.847096
  C      1.344193   -2.184928   -0.999412
  H      2.050091   -2.079306   -1.832835
  C      1.971225   -2.899476    0.183183
  H      2.833297   -2.358396    0.581687
  H      2.306925   -3.891756   -0.134905
  H      1.232501   -3.012005    0.981162
  C      0.081053   -2.853672   -1.496281
  H     -0.653769   -2.939304   -0.688196
  H      0.330314   -3.865250   -1.830755
  H     -0.358500   -2.301935   -2.330067
  C      1.939880    0.133520   -0.415935
  C      3.284529   -0.018165   -0.728786
  H      3.670327   -0.938381   -1.148932
  C      4.152474    1.046012   -0.491868
  H      5.203318    0.927925   -0.738688
  C      3.698920    2.247048    0.052391
  H      4.393293    3.061548    0.230032
  C      2.357726    2.393015    0.361144
  H      1.982298    3.321854    0.781377
  C      1.452270    1.341924    0.132397
  Cl    -1.500787    0.339164   -2.267165
  Cl    -1.026510   -1.365657    1.838402
  C     -2.530510    0.924128    0.531367
  O     -3.457034    1.505408    0.893094

----------------------------
CARTESIAN COORDINATES (A.U.)
----------------------------
  NO LB      ZA    FRAG     MASS         X           Y           Z
   0 Ru   16.0000*   0   101.070   -1.986499    0.078017   -0.022601
   1 O     8.0000    0    15.999    1.838002   -1.529945   -1.147950
   2 C     6.0000    0    12.011    0.104145    2.760826    0.781443
   3 H     1.0000    0     1.008   -0.552091    4.538640    1.600779
   4 C     6.0000    0    12.011    2.540157   -4.128916   -1.888615
   5 H     1.0000    0     1.008    3.874111   -3.929319   -3.463556
   6 C     6.0000    0    12.011    3.725075   -5.479216    0.346166
   7 H     1.0000    0     1.008    5.354155   -4.456723    1.099229
   8 H     1.0000    0     1.008    4.359456   -7.354353   -0.254934
   9 H     1.0000    0     1.008    2.329089   -5.691865    1.854127
  10 C     6.0000    0    12.011    0.153168   -5.392659   -2.827561
  11 H     1.0000    0     1.008   -1.235444   -5.554480   -1.300502
  12 H     1.0000    0     1.008    0.624203   -7.304264   -3.459626
  13 H     1.0000    0     1.008   -0.677467   -4.350027   -4.403189
  14 C     6.0000    0    12.011    3.665842    0.252316   -0.786003
  15 C     6.0000    0    12.011    6.206860   -0.034327   -1.377206
  16 H     1.0000    0     1.008    6.935913   -1.773283   -2.171167
  17 C     6.0000    0    12.011    7.847039    1.976676   -0.929496
  18 H     1.0000    0     1.008    9.832846    1.753524   -1.395918
  19 C     6.0000    0    12.011    6.989946    4.246305    0.099005
  20 H     1.0000    0     1.008    8.302121    5.785487    0.434697
  21 C     6.0000    0    12.011    4.455456    4.522143    0.682463
  22 H     1.0000    0     1.008    3.746000    6.277394    1.476589
  23 C     6.0000    0    12.011    2.744393    2.535869    0.250194
  24 Cl   17.0000    0    35.453   -2.836076    0.640927   -4.284321
  25 Cl   17.0000    0    35.453   -1.939823   -2.580718    3.474076
  26 C     6.0000    0    12.011   -4.781971    1.746349    1.004138
  27 O     8.0000    0    15.999   -6.532847    2.844809    1.687703
* core charge reduced due to ECP

--------------------------------
INTERNAL COORDINATES (ANGSTROEM)
--------------------------------
 Ru     0   0   0     0.000000000000     0.00000000     0.00000000
 O      1   0   0     2.274770531639     0.00000000     0.00000000
 C      1   2   0     1.849452683668    79.34822118     0.00000000
 H      3   1   2     1.092540397670   124.20516931   180.86064395
 C      2   1   3     1.477556503556   129.89257704   170.48396955
 H      5   2   1     1.097288426175   105.88182447   139.32331749
 C      5   2   1     1.517326236296   109.60383286   260.07334770
 H      7   5   2     1.093042148135   112.14547488   303.81822822
 H      7   5   2     1.094757536692   109.09321016   183.93629967
 H      7   5   2     1.093227519073   109.76318753    64.53432242
 C      5   2   1     1.513149034397   106.77148313    22.94760945
 H     11   5   2     1.095580931895   110.62442587   296.02740797
 H     11   5   2     1.094209282030   108.58990335   177.89372088
 H     11   5   2     1.092162831621   111.30810258    57.91798277
 C      2   1   3     1.364462436119   109.59616415   357.46234576
 C     15   2   1     1.388871851766   125.39473024   182.98508453
 H     16  15   2     1.082663495633   121.68420536   359.04903434
 C     16  15   2     1.393531969163   118.77087073   179.08888214
 H     18  16  15     1.085881100446   118.75415459   180.13850756
 C     18  16  15     1.394423380216   121.43412167     0.19910926
 H     20  18  16     1.084951813681   120.15535701   179.88106341
 C     20  18  16     1.383992819972   119.54581186   359.74367349
 H     22  20  18     1.086408691697   120.75349537   180.30096998
 C     22  20  18     1.406046958044   120.59204928     0.08182872
 Cl     1   2   3     2.318792998436    88.04810617   104.58982450
 Cl     1   2   3     2.324636619433    88.42607599   253.42869594
 C      1   2   3     1.806362223248   171.95595081   359.14375469
 O     27   1   3     1.152032804874   178.54977886   341.38207643

---------------------------
INTERNAL COORDINATES (A.U.)
---------------------------
 Ru     0   0   0     0.000000000000     0.00000000     0.00000000
 O      1   0   0     4.298693322311     0.00000000     0.00000000
 C      1   2   0     3.494959069778    79.34822118     0.00000000
 H      3   1   2     2.064602141843   124.20516931   180.86064395
 C      2   1   3     2.792177139115   129.89257704   170.48396955
 H      5   2   1     2.073574615392   105.88182447   139.32331749
 C      5   2   1     2.867331042413   109.60383286   260.07334770
 H      7   5   2     2.065550312808   112.14547488   303.81822822
 H      7   5   2     2.068791927394   109.09321016   183.93629967
 H      7   5   2     2.065900613114   109.76318753    64.53432242
 C      5   2   1     2.859437274818   106.77148313    22.94760945
 H     11   5   2     2.070347918829   110.62442587   296.02740797
 H     11   5   2     2.067755876232   108.58990335   177.89372088
 H     11   5   2     2.063888645411   111.30810258    57.91798277
 C      2   1   3     2.578460324289   109.59616415   357.46234576
 C     15   2   1     2.624587434949   125.39473024   182.98508453
 H     16  15   2     2.045937501940   121.68420536   359.04903434
 C     16  15   2     2.633393780581   118.77087073   179.08888214
 H     18  16  15     2.052017893843   118.75415459   180.13850756
 C     18  16  15     2.635078303345   121.43412167     0.19910926
 H     20  18  16     2.050261796359   120.15535701   179.88106341
 C     20  18  16     2.615367401060   119.54581186   359.74367349
 H     22  20  18     2.053014896818   120.75349537   180.30096998
 C     22  20  18     2.657043682137   120.59204928     0.08182872
 Cl     1   2   3     4.381883728298    88.04810617   104.58982450
 Cl     1   2   3     4.392926571613    88.42607599   253.42869594
 C      1   2   3     3.413529900600   171.95595081   359.14375469
 O     27   1   3     2.177026498504   178.54977886   341.38207643

---------------------
BASIS SET INFORMATION
---------------------
There are 5 groups of distinct atoms

 Group   1 Type Ru  : 7s7p5d contracted to 6s4p3d pattern {211111/4111/311}
 Group   2 Type O   : 11s6p2d contracted to 5s3p2d pattern {62111/411/11}
 Group   3 Type C   : 11s6p1d contracted to 5s3p1d pattern {62111/411/1}
 Group   4 Type H   : 4s1p contracted to 2s1p pattern {31/1}
 Group   5 Type Cl  : 14s9p2d contracted to 5s4p2d pattern {73211/6111/11}

Atom   0Ru   basis set group =>   1
Atom   1O    basis set group =>   2
Atom   2C    basis set group =>   3
Atom   3H    basis set group =>   4
Atom   4C    basis set group =>   3
Atom   5H    basis set group =>   4
Atom   6C    basis set group =>   3
Atom   7H    basis set group =>   4
Atom   8H    basis set group =>   4
Atom   9H    basis set group =>   4
Atom  10C    basis set group =>   3
Atom  11H    basis set group =>   4
Atom  12H    basis set group =>   4
Atom  13H    basis set group =>   4
Atom  14C    basis set group =>   3
Atom  15C    basis set group =>   3
Atom  16H    basis set group =>   4
Atom  17C    basis set group =>   3
Atom  18H    basis set group =>   4
Atom  19C    basis set group =>   3
Atom  20H    basis set group =>   4
Atom  21C    basis set group =>   3
Atom  22H    basis set group =>   4
Atom  23C    basis set group =>   3
Atom  24Cl   basis set group =>   5
Atom  25Cl   basis set group =>   5
Atom  26C    basis set group =>   3
Atom  27O    basis set group =>   2
---------------------------------
AUXILIARY/J BASIS SET INFORMATION
---------------------------------
There are 5 groups of distinct atoms

 Group   1 Type Ru  : 11s5p5d3f3g contracted to 8s5p5d2f3g pattern {41111111/11111/11111/21/111}
 Group   2 Type O   : 8s3p3d contracted to 6s3p3d pattern {311111/111/111}
 Group   3 Type C   : 8s3p3d contracted to 6s3p3d pattern {311111/111/111}
 Group   4 Type H   : 5s2p1d contracted to 3s1p1d pattern {311/2/1}
 Group   5 Type Cl  : 14s5p5d2f contracted to 8s4p3d1f pattern {71111111/2111/311/2}

Atom   0Ru   basis set group =>   1
Atom   1O    basis set group =>   2
Atom   2C    basis set group =>   3
Atom   3H    basis set group =>   4
Atom   4C    basis set group =>   3
Atom   5H    basis set group =>   4
Atom   6C    basis set group =>   3
Atom   7H    basis set group =>   4
Atom   8H    basis set group =>   4
Atom   9H    basis set group =>   4
Atom  10C    basis set group =>   3
Atom  11H    basis set group =>   4
Atom  12H    basis set group =>   4
Atom  13H    basis set group =>   4
Atom  14C    basis set group =>   3
Atom  15C    basis set group =>   3
Atom  16H    basis set group =>   4
Atom  17C    basis set group =>   3
Atom  18H    basis set group =>   4
Atom  19C    basis set group =>   3
Atom  20H    basis set group =>   4
Atom  21C    basis set group =>   3
Atom  22H    basis set group =>   4
Atom  23C    basis set group =>   3
Atom  24Cl   basis set group =>   5
Atom  25Cl   basis set group =>   5
Atom  26C    basis set group =>   3
Atom  27O    basis set group =>   2
-------------------------
ECP PARAMETER INFORMATION
-------------------------

 Group 1, Type Ru ECP Def2-ECP (replacing 28 core electrons, lmax=3)

Atom   0Ru   ECP group =>   1



           ************************************************************
           *        Program running with 20 parallel MPI-processes    *
           *              working on a common directory               *
           ************************************************************
------------------------------------------------------------------------------
                             ORCA STARTUP CALCULATIONS
                           -- RI-GTO INTEGRALS CHOSEN --
------------------------------------------------------------------------------
------------------------------------------------------------------------------
                   ___                                                        
                  /   \      - P O W E R E D   B Y -                         
                 /     \                                                     
                 |  |  |   _    _      __       _____    __    __             
                 |  |  |  | |  | |    /  \     |  _  \  |  |  /  |          
                  \  \/   | |  | |   /    \    | | | |  |  | /  /          
                 / \  \   | |__| |  /  /\  \   | |_| |  |  |/  /          
                |  |  |   |  __  | /  /__\  \  |    /   |      \           
                |  |  |   | |  | | |   __   |  |    \   |  |\   \          
                \     /   | |  | | |  |  |  |  | |\  \  |  | \   \       
                 \___/    |_|  |_| |__|  |__|  |_| \__\ |__|  \__/        
                                                                              
                      - O R C A' S   B I G   F R I E N D -                    
                                      &                                       
                       - I N T E G R A L  F E E D E R -                       
                                                                              
 v1 FN, 2020, v2 2021, v3 2022-2024                                           
------------------------------------------------------------------------------


----------------------
SHARK INTEGRAL PACKAGE
----------------------

Number of atoms                             ...     28
Number of basis functions                   ...    404
Number of shells                            ...    190
Maximum angular momentum                    ...      2
Integral batch strategy                     ... SHARK/LIBINT Hybrid
RI-J (if used) integral strategy            ... SPLIT-RIJ (Revised 2003 algorithm where possible)
Printlevel                                  ...      1
Contraction scheme used                     ... SEGMENTED contraction
Prescreening option                         ... SCHWARTZ
   Thresh                                   ... 2.500e-11
   Tcut                                     ... 2.500e-12
   Tpresel                                  ... 2.500e-12 
Coulomb Range Separation                    ... NOT USED
Exchange Range Separation                   ... NOT USED
Multipole approximations                    ... NOT USED
Finite Nucleus Model                        ... NOT USED
CABS basis                                  ... NOT available
Auxiliary Coulomb fitting basis             ... AVAILABLE
   # of basis functions in Aux-J            ...    695
   # of shells in Aux-J                     ...    271
   Maximum angular momentum in Aux-J        ...      4
Auxiliary J/K fitting basis                 ... NOT available
Auxiliary Correlation fitting basis         ... NOT available
Auxiliary 'external' fitting basis          ... NOT available

Checking pre-screening integrals            ... done (  0.0 sec) Dimension = 190
Check shell pair data                       ... done (  0.0 sec)
Shell pair information
Shell pair cut-off parameter TPreSel        ...   2.5e-12
Total number of shell pairs                 ...     18145
Shell pairs after pre-screening             ...     14273
Total number of primitive shell pairs       ...     67207
Primitive shell pairs kept                  ...     33965
          la=0 lb=0:   4144 shell pairs
          la=1 lb=0:   5273 shell pairs
          la=1 lb=1:   1699 shell pairs
          la=2 lb=0:   1789 shell pairs
          la=2 lb=1:   1151 shell pairs
          la=2 lb=2:    217 shell pairs

Calculating one electron integrals          ... done (  0.0 sec)
Calculating ECP integrals                   ... done (  0.5 sec)
Calculating RI/J V-Matrix + Cholesky decomp.... done (  0.0 sec)
Calculating Nuclear repulsion               ... done (  0.0 sec) ENN=   1533.393950258285 Eh

Diagonalization of the overlap matrix:
Smallest eigenvalue                        ... 2.294e-05
Time for diagonalization                   ...    0.026 sec
Threshold for overlap eigenvalues          ... 1.000e-07
Number of eigenvalues below threshold      ... 0
Time for construction of square roots      ...    0.013 sec
Total time needed                          ...    0.053 sec

-------------------
DFT GRID GENERATION
-------------------

General Integration Accuracy     IntAcc      ... 4.388
Radial Grid Type                 RadialGrid  ... OptM3 with GC (2021)
Angular Grid (max. ang.)         AngularGrid ... 4 (Lebedev-302)
Angular grid pruning method      GridPruning ... 4 (adaptive)
Weight generation scheme         WeightScheme... mBecke (2022)
Basis function cutoff            BFCut       ... 1.0000e-11
Integration weight cutoff        WCut        ... 1.0000e-14
Partially contracted basis set               ... off
Rotationally invariant grid construction     ... off
Angular grids for H and He will be reduced by one unit
Diffuse basis detected: some atoms will have their outermost
                        angular grid increased by 1.

Total number of grid points                  ...   141346
Total number of batches                      ...     2222
Average number of points per batch           ...       63
Average number of grid points per atom       ...     5048
Initializing property integral containers    ... done (  0.1 sec)

SHARK setup successfully completed in   2.3 seconds

Maximum memory used throughout the entire STARTUP-calculation: 48.7 MB


           ************************************************************
           *        Program running with 20 parallel MPI-processes    *
           *              working on a common directory               *
           ************************************************************
-------------------------------------------------------------------------------
                                 ORCA GUESS
                   Start orbitals & Density for SCF / CASSCF
-------------------------------------------------------------------------------

------------
SCF SETTINGS
------------
Hamiltonian:
 Density Functional     Method          .... DFT(GTOs)
  Functional kind                       .... Exchange
  Functional name                       .... Re-regularized SCAN exchange by Furness et al
  Functional family                     .... MGGA
  Functional refs                              
    [ 0] J. W. Furness, A. D. Kaplan, J. Ning, J. P. Perdew, and J. Sun.,  J. Phys. Chem. Lett. 11, 8208-8215 (2020), doi: 10.1021/acs.jpclett.0c02405
    [ 1] J. W. Furness, A. D. Kaplan, J. Ning, J. P. Perdew, and J. Sun.,  J. Phys. Chem. Lett. 11, 9248-9248 (2020), doi: 10.1021/acs.jpclett.0c03077
  Functional external parameters        .... 6
    Parameter  0 _c1        =  6.670000e-01 : c1 parameter        
    Parameter  1 _c2        =  8.000000e-01 : c2 parameter        
    Parameter  2 _d         =  1.240000e+00 : d parameter         
    Parameter  3 _k1        =  6.500000e-02 : k1 parameter        
    Parameter  4 _eta       =  1.000000e-03 : eta parameter       
    Parameter  5 _dp2       =  3.610000e-01 : dp2 parameter       
  Functional kind                       .... Correlation
  Functional name                       .... Re-regularized SCAN correlation by Furness et al
  Functional family                     .... MGGA
  Functional refs                              
    [ 0] J. W. Furness, A. D. Kaplan, J. Ning, J. P. Perdew, and J. Sun.,  J. Phys. Chem. Lett. 11, 8208-8215 (2020), doi: 10.1021/acs.jpclett.0c02405
    [ 1] J. W. Furness, A. D. Kaplan, J. Ning, J. P. Perdew, and J. Sun.,  J. Phys. Chem. Lett. 11, 9248-9248 (2020), doi: 10.1021/acs.jpclett.0c03077
  Functional external parameters        .... 1
    Parameter  0 _eta       =  1.000000e-03 : Regularization parameter
 Gradients option       PostSCFGGA      .... off
 RI-approximation to the Coulomb term is turned on
   Number of AuxJ basis functions       .... 695


General Settings:
 Integral files         IntName         .... cli48_Compound_1
 Hartree-Fock type      HFTyp           .... RHF
 Total Charge           Charge          ....    0
 Multiplicity           Mult            ....    1
 Number of Electrons    NEL             ....  144
 Basis Dimension        Dim             ....  404
 Nuclear Repulsion      ENuc            ....   1533.3939502583 Eh

Convergence Acceleration:
 AO-DIIS                CNVDIIS         .... on
   Start iteration      DIISMaxIt       ....    12
   Startup error        DIISStart       ....  0.200000
   # of expansion vecs  DIISMaxEq       ....     5
   Bias factor          DIISBfac        ....   1.050
   Max. coefficient     DIISMaxC        ....  10.000
 MO-DIIS                CNVKDIIS        .... off
 Trust-Rad. Augm. Hess. CNVTRAH         .... auto
   Auto Start mean grad. ratio tolernc. ....  1.125000
   Auto Start start iteration           ....     1
   Auto Start num. interpolation iter.  ....    10
   Max. Number of Micro iterations      ....    24
   Max. Number of Macro iterations      .... Maxiter - #DIIS iter
   Number of Davidson start vectors     ....     2
   Converg. threshold    (grad. norm)   ....   1.000e-05
   Grad. Scal. Fac. for Micro threshold ....   0.100
   Minimum threshold for Micro iter.    ....   1.000e-02
   NR start threshold (gradient norm)   ....   1.000e-04
   Initial trust radius                 ....   0.400
   Minimum AH scaling param. (alpha)    ....   1.000
   Maximum AH scaling param. (alpha)    .... 1000.000
   Quad. conv. algorithm                .... NR
   White noise on init. David. guess    .... on
   Maximum white noise                  ....   0.010
   Pseudo random numbers                .... off
   Inactive MOs                         .... canonical
   Orbital update algorithm             .... Taylor
   Preconditioner                       .... Diag
   Full preconditioner red. dimension   ....   250
   COSX micro iterations for RIJONX calc.... off
 SOSCF                  CNVSOSCF        .... on
   Start iteration      SOSCFMaxIt      ....   150
   Startup grad/error   SOSCFStart      ....  0.003300
   Hessian update       SOSCFHessUp     .... L-BFGS
 Level Shifting         CNVShift        .... on
   Level shift para.    LevelShift      ....    0.2500
   Turn off err/grad.   ShiftErr        ....    0.0010
 Zerner damping         CNVZerner       .... off
 Static damping         CNVDamp         .... on
   Fraction old density DampFac         ....    0.7000
   Max. Damping (<1)    DampMax         ....    0.9800
   Min. Damping (>=0)   DampMin         ....    0.0000
   Turn off err/grad.   DampErr         ....    0.1000

SCF Procedure:
 Maximum # iterations   MaxIter         ....   500
 SCF integral mode      SCFMode         .... Direct
   Integral package                     .... SHARK and LIBINT hybrid scheme
 Reset frequency        DirectResetFreq ....    20
 Integral Threshold     Thresh          ....  2.500e-11 Eh
 Primitive CutOff       TCut            ....  2.500e-12 Eh

Convergence Tolerance:
 Convergence Check Mode ConvCheckMode   .... Total+1el-Energy
 Convergence forced     ConvForced      .... 0
 Energy Change          TolE            ....  1.000e-08 Eh
 1-El. energy change                    ....  1.000e-05 Eh
 Orbital Gradient       TolG            ....  1.000e-05
 Orbital Rotation angle TolX            ....  1.000e-05
 DIIS Error             TolErr          ....  5.000e-07

---------------------
INITIAL GUESS: MOREAD
---------------------
Guess MOs are being read from file: restart.gbw
Input geometry compatible with but different from current geometry
Input basis set matches current basis set (good)
Occupation numbers will be reassigned to an Aufbau configuration
MOs were renormalized
MOs were reorthogonalized (Cholesky)
                      ------------------
                      INITIAL GUESS DONE (   0.2 sec)
                      ------------------
             **** ENERGY FILE WAS UPDATED (cli48_Compound_1.en.tmp) ****
Finished Guess after   1.7 sec
Maximum memory used throughout the entire GUESS-calculation: 28.6 MB


           ************************************************************
           *        Program running with 20 parallel MPI-processes    *
           *              working on a common directory               *
           ************************************************************

-------------------------------------------------------------------------------------------
                                      ORCA LEAN-SCF
                              memory conserving SCF solver
-------------------------------------------------------------------------------------------

----------------------------------------D-I-I-S--------------------------------------------
Iteration    Energy (Eh)           Delta-E    RMSDP     MaxDP     DIISErr   Damp  Time(sec)
-------------------------------------------------------------------------------------------
               ***  Starting incremental Fock matrix formation  ***
                              *** Initializing SOSCF ***
---------------------------------------S-O-S-C-F--------------------------------------
Iteration    Energy (Eh)           Delta-E    RMSDP     MaxDP     MaxGrad    Time(sec)
--------------------------------------------------------------------------------------
    1    -1592.1775252042218654     0.00e+00  1.81e-06  1.40e-04  5.60e-07     1.9
               *** Restarting incremental Fock matrix formation ***
    2    -1592.1775252042182274     3.64e-12  4.37e-07  2.75e-05  1.69e-06     1.3
                  *** Gradient check signals convergence ***

               *****************************************************
               *                     SUCCESS                       *
               *           SCF CONVERGED AFTER   2 CYCLES          *
               *****************************************************

             **** ENERGY FILE WAS UPDATED (cli48_Compound_1.en.tmp) ****

----------------
TOTAL SCF ENERGY
----------------

Total Energy       :      -1592.17752520421823 Eh          -43325.35308 eV

Components:
Nuclear Repulsion  :       1533.39395025828503 Eh           41725.77068 eV
Electronic Energy  :      -3125.57147546250326 Eh          -85051.12376 eV
One Electron Energy:      -5270.37706489108314 Eh         -143414.25098 eV
Two Electron Energy:       2144.80558942857988 Eh           58363.12721 eV

Virial components:
Potential Energy   :      -3118.65137691439304 Eh          -84862.81831 eV
Kinetic Energy     :       1526.47385171017459 Eh           41537.46523 eV
Virial Ratio       :          2.04304277693354

DFT components:
N(Alpha)           :       72.000037516211 electrons
N(Beta)            :       72.000037516211 electrons
N(Total)           :      144.000075032422 electrons
E(X)               :     -142.698878385378 Eh       
E(C)               :       -5.014407765440 Eh       
E(XC)              :     -147.713286150817 Eh       

---------------
SCF CONVERGENCE
---------------

  Last Energy change         ...   -3.6380e-12  Tolerance :   1.0000e-08
  Last MAX-Density change    ...    2.7479e-05  Tolerance :   1.0000e-07
  Last RMS-Density change    ...    4.3689e-07  Tolerance :   5.0000e-09
  Last DIIS Error            ...    2.6016e-06  Tolerance :   5.0000e-07
  Last Orbital Gradient      ...    1.6852e-06  Tolerance :   1.0000e-05
  Last Orbital Rotation      ...    4.1202e-06  Tolerance :   1.0000e-05


----------------
ORBITAL ENERGIES
----------------

  NO   OCC          E(Eh)            E(eV) 
   0   2.0000    -101.175274     -2753.1192 
   1   2.0000    -101.174304     -2753.0928 
   2   2.0000     -19.042620      -518.1760 
   3   2.0000     -19.024509      -517.6832 
   4   2.0000     -10.151888      -276.2469 
   5   2.0000     -10.137264      -275.8490 
   6   2.0000     -10.128971      -275.6233 
   7   2.0000     -10.094696      -274.6907 
   8   2.0000     -10.077295      -274.2171 
   9   2.0000     -10.074589      -274.1435 
  10   2.0000     -10.073369      -274.1103 
  11   2.0000     -10.070945      -274.0443 
  12   2.0000     -10.062460      -273.8135 
  13   2.0000     -10.044343      -273.3205 
  14   2.0000     -10.042707      -273.2759 
  15   2.0000      -9.330194      -253.8875 
  16   2.0000      -9.329176      -253.8598 
  17   2.0000      -7.073677      -192.4845 
  18   2.0000      -7.072746      -192.4592 
  19   2.0000      -7.068454      -192.3424 
  20   2.0000      -7.067399      -192.3137 
  21   2.0000      -7.067157      -192.3071 
  22   2.0000      -7.066095      -192.2782 
  23   2.0000      -3.024104       -82.2901 
  24   2.0000      -1.877376       -51.0860 
  25   2.0000      -1.873327       -50.9758 
  26   2.0000      -1.872430       -50.9514 
  27   2.0000      -1.092340       -29.7241 
  28   2.0000      -1.076023       -29.2801 
  29   2.0000      -0.860897       -23.4262 
  30   2.0000      -0.795656       -21.6509 
  31   2.0000      -0.772406       -21.0182 
  32   2.0000      -0.739626       -20.1262 
  33   2.0000      -0.733253       -19.9528 
  34   2.0000      -0.725610       -19.7448 
  35   2.0000      -0.682749       -18.5785 
  36   2.0000      -0.665720       -18.1152 
  37   2.0000      -0.635901       -17.3037 
  38   2.0000      -0.583413       -15.8755 
  39   2.0000      -0.573362       -15.6020 
  40   2.0000      -0.545453       -14.8425 
  41   2.0000      -0.530615       -14.4388 
  42   2.0000      -0.493943       -13.4409 
  43   2.0000      -0.481507       -13.1025 
  44   2.0000      -0.463999       -12.6260 
  45   2.0000      -0.452369       -12.3096 
  46   2.0000      -0.443989       -12.0815 
  47   2.0000      -0.434802       -11.8316 
  48   2.0000      -0.428403       -11.6574 
  49   2.0000      -0.424417       -11.5490 
  50   2.0000      -0.412010       -11.2114 
  51   2.0000      -0.406224       -11.0539 
  52   2.0000      -0.390417       -10.6238 
  53   2.0000      -0.385158       -10.4807 
  54   2.0000      -0.381346       -10.3770 
  55   2.0000      -0.375275       -10.2117 
  56   2.0000      -0.357487        -9.7277 
  57   2.0000      -0.357037        -9.7155 
  58   2.0000      -0.349116        -9.4999 
  59   2.0000      -0.342366        -9.3162 
  60   2.0000      -0.340437        -9.2638 
  61   2.0000      -0.334630        -9.1057 
  62   2.0000      -0.331308        -9.0154 
  63   2.0000      -0.300529        -8.1778 
  64   2.0000      -0.298649        -8.1267 
  65   2.0000      -0.274570        -7.4714 
  66   2.0000      -0.274366        -7.4659 
  67   2.0000      -0.272397        -7.4123 
  68   2.0000      -0.248082        -6.7507 
  69   2.0000      -0.244487        -6.6528 
  70   2.0000      -0.218951        -5.9580 
  71   2.0000      -0.213306        -5.8044 
  72   0.0000      -0.128163        -3.4875 
  73   0.0000      -0.110477        -3.0062 
  74   0.0000      -0.068397        -1.8612 
  75   0.0000      -0.055757        -1.5172 
  76   0.0000      -0.030255        -0.8233 
  77   0.0000      -0.022558        -0.6138 
  78   0.0000      -0.014781        -0.4022 
  79   0.0000       0.034575         0.9408 
  80   0.0000       0.043239         1.1766 
  81   0.0000       0.053931         1.4675 
  82   0.0000       0.058650         1.5959 
*Only the first 10 virtual orbitals were printed.

                    ********************************
                    * MULLIKEN POPULATION ANALYSIS *
                    ********************************

-----------------------
MULLIKEN ATOMIC CHARGES
-----------------------
   0 Ru:    0.106380
   1 O :   -0.091402
   2 C :   -0.105532
   3 H :    0.149403
   4 C :   -0.072817
   5 H :    0.153785
   6 C :   -0.419036
   7 H :    0.155049
   8 H :    0.159808
   9 H :    0.192828
  10 C :   -0.463625
  11 H :    0.181030
  12 H :    0.152821
  13 H :    0.193492
  14 C :    0.264762
  15 C :   -0.254741
  16 H :    0.154068
  17 C :   -0.123464
  18 H :    0.153768
  19 C :   -0.154184
  20 H :    0.153606
  21 C :   -0.206053
  22 H :    0.151272
  23 C :    0.013299
  24 Cl:   -0.368023
  25 Cl:   -0.381178
  26 C :    0.595352
  27 O :   -0.290666
Sum of atomic charges:   -0.0000000

--------------------------------
MULLIKEN REDUCED ORBITAL CHARGES
--------------------------------
  0 Rus       :     2.671815  s :     2.671815
      pz      :     2.185514  p :     6.565561
      px      :     2.216652
      py      :     2.163394
      dz2     :     1.178139  d :     6.656245
      dxz     :     1.499842
      dyz     :     1.306548
      dx2y2   :     1.519759
      dxy     :     1.151956

  1 O s       :     3.658325  s :     3.658325
      pz      :     1.760569  p :     4.348965
      px      :     1.441614
      py      :     1.146783
      dz2     :     0.008408  d :     0.084112
      dxz     :     0.017876
      dyz     :     0.015425
      dx2y2   :     0.024321
      dxy     :     0.018082

  2 C s       :     3.156687  s :     3.156687
      pz      :     0.866054  p :     2.910293
      px      :     1.028830
      py      :     1.015408
      dz2     :     0.003198  d :     0.038552
      dxz     :     0.007056
      dyz     :     0.004822
      dx2y2   :     0.015512
      dxy     :     0.007963

  3 H s       :     0.831369  s :     0.831369
      pz      :     0.004811  p :     0.019228
      px      :     0.004357
      py      :     0.010060

  4 C s       :     3.230629  s :     3.230629
      pz      :     0.987799  p :     2.778024
      px      :     1.040606
      py      :     0.749618
      dz2     :     0.010137  d :     0.064164
      dxz     :     0.014019
      dyz     :     0.013180
      dx2y2   :     0.015357
      dxy     :     0.011471

  5 H s       :     0.828852  s :     0.828852
      pz      :     0.008271  p :     0.017363
      px      :     0.006818
      py      :     0.002274

  6 C s       :     3.305353  s :     3.305353
      pz      :     0.987113  p :     3.087006
      px      :     1.079610
      py      :     1.020283
      dz2     :     0.004206  d :     0.026677
      dxz     :     0.008475
      dyz     :     0.005353
      dx2y2   :     0.003995
      dxy     :     0.004647

  7 H s       :     0.826589  s :     0.826589
      pz      :     0.004731  p :     0.018363
      px      :     0.008263
      py      :     0.005368

  8 H s       :     0.822182  s :     0.822182
      pz      :     0.003932  p :     0.018011
      px      :     0.004385
      py      :     0.009694

  9 H s       :     0.788936  s :     0.788936
      pz      :     0.007728  p :     0.018235
      px      :     0.007067
      py      :     0.003440

 10 C s       :     3.351814  s :     3.351814
      pz      :     1.085375  p :     3.084922
      px      :     0.948693
      py      :     1.050854
      dz2     :     0.003448  d :     0.026889
      dxz     :     0.008735
      dyz     :     0.004066
      dx2y2   :     0.005404
      dxy     :     0.005236

 11 H s       :     0.800709  s :     0.800709
      pz      :     0.007694  p :     0.018261
      px      :     0.006923
      py      :     0.003644

 12 H s       :     0.829107  s :     0.829107
      pz      :     0.004425  p :     0.018072
      px      :     0.003683
      py      :     0.009964

 13 H s       :     0.788217  s :     0.788217
      pz      :     0.007823  p :     0.018292
      px      :     0.004815
      py      :     0.005654

 14 C s       :     3.121254  s :     3.121254
      pz      :     0.891724  p :     2.540929
      px      :     0.774575
      py      :     0.874631
      dz2     :     0.006836  d :     0.073055
      dxz     :     0.013516
      dyz     :     0.010487
      dx2y2   :     0.019120
      dxy     :     0.023096

 15 C s       :     3.239712  s :     3.239712
      pz      :     1.056222  p :     2.978141
      px      :     0.936325
      py      :     0.985594
      dz2     :     0.003405  d :     0.036888
      dxz     :     0.006579
      dyz     :     0.004220
      dx2y2   :     0.012841
      dxy     :     0.009843

 16 H s       :     0.825843  s :     0.825843
      pz      :     0.005711  p :     0.020089
      px      :     0.004377
      py      :     0.010001

 17 C s       :     3.200089  s :     3.200089
      pz      :     0.948926  p :     2.884336
      px      :     1.020095
      py      :     0.915316
      dz2     :     0.004281  d :     0.039039
      dxz     :     0.004044
      dyz     :     0.007283
      dx2y2   :     0.012275
      dxy     :     0.011156

 18 H s       :     0.827047  s :     0.827047
      pz      :     0.004267  p :     0.019186
      px      :     0.011654
      py      :     0.003264

 19 C s       :     3.188087  s :     3.188087
      pz      :     0.989895  p :     2.928073
      px      :     0.960592
      py      :     0.977586
      dz2     :     0.004129  d :     0.038023
      dxz     :     0.005884
      dyz     :     0.004674
      dx2y2   :     0.011203
      dxy     :     0.012133

 20 H s       :     0.827036  s :     0.827036
      pz      :     0.004268  p :     0.019358
      px      :     0.006787
      py      :     0.008303

 21 C s       :     3.235880  s :     3.235880
      pz      :     0.977466  p :     2.931421
      px      :     0.944319
      py      :     1.009636
      dz2     :     0.003268  d :     0.038752
      dxz     :     0.007652
      dyz     :     0.004004
      dx2y2   :     0.011121
      dxy     :     0.012706

 22 H s       :     0.829403  s :     0.829403
      pz      :     0.005199  p :     0.019326
      px      :     0.004114
      py      :     0.010013

 23 C s       :     3.241917  s :     3.241917
      pz      :     1.006588  p :     2.696278
      px      :     0.777755
      py      :     0.911935
      dz2     :     0.004746  d :     0.048506
      dxz     :     0.007123
      dyz     :     0.007153
      dx2y2   :     0.014877
      dxy     :     0.014608

 24 Cls       :     5.964912  s :     5.964912
      pz      :     3.565164  p :    11.372643
      px      :     3.916441
      py      :     3.891038
      dz2     :     0.010838  d :     0.030468
      dxz     :     0.008950
      dyz     :     0.008445
      dx2y2   :     0.001049
      dxy     :     0.001185

 25 Cls       :     5.964862  s :     5.964862
      pz      :     3.729071  p :    11.386055
      px      :     3.925661
      py      :     3.731324
      dz2     :     0.009929  d :     0.030261
      dxz     :     0.005227
      dyz     :     0.008255
      dx2y2   :     0.002456
      dxy     :     0.004395

 26 C s       :     3.174190  s :     3.174190
      pz      :     0.710988  p :     2.147263
      px      :     0.728722
      py      :     0.707553
      dz2     :     0.010961  d :     0.083195
      dxz     :     0.019747
      dyz     :     0.009485
      dx2y2   :     0.025147
      dxy     :     0.017854

 27 O s       :     3.876719  s :     3.876719
      pz      :     1.501003  p :     4.377801
      px      :     1.410621
      py      :     1.466177
      dz2     :     0.004077  d :     0.036146
      dxz     :     0.008257
      dyz     :     0.003636
      dx2y2   :     0.008842
      dxy     :     0.011334



                     *******************************
                     * LOEWDIN POPULATION ANALYSIS *
                     *******************************

----------------------
LOEWDIN ATOMIC CHARGES
----------------------
   0 Ru:   -0.391881
   1 O :   -0.681973
   2 C :   -0.031269
   3 H :    0.183334
   4 C :    0.086211
   5 H :    0.182764
   6 C :   -0.378902
   7 H :    0.167041
   8 H :    0.165418
   9 H :    0.180373
  10 C :   -0.371461
  11 H :    0.179268
  12 H :    0.168460
  13 H :    0.180924
  14 C :    0.248950
  15 C :   -0.155878
  16 H :    0.181871
  17 C :   -0.125261
  18 H :    0.174753
  19 C :   -0.171980
  20 H :    0.174738
  21 C :   -0.109382
  22 H :    0.179320
  23 C :   -0.055957
  24 Cl:   -0.037335
  25 Cl:   -0.049442
  26 C :    0.345301
  27 O :   -0.238005

-------------------------------
LOEWDIN REDUCED ORBITAL CHARGES
-------------------------------
  0 Rus       :     2.287487  s :     2.287487
      pz      :     2.407303  p :     6.961375
      px      :     2.263915
      py      :     2.290158
      dz2     :     1.324573  d :     7.143018
      dxz     :     1.545633
      dyz     :     1.398846
      dx2y2   :     1.561416
      dxy     :     1.312550

  1 O s       :     3.428863  s :     3.428863
      pz      :     1.748591  p :     4.657876
      px      :     1.544126
      py      :     1.365159
      dz2     :     0.066003  d :     0.595233
      dxz     :     0.090504
      dyz     :     0.112706
      dx2y2   :     0.158953
      dxy     :     0.167067

  2 C s       :     2.965940  s :     2.965940
      pz      :     0.878570  p :     2.990736
      px      :     1.045977
      py      :     1.066189
      dz2     :     0.005247  d :     0.074593
      dxz     :     0.012697
      dyz     :     0.008802
      dx2y2   :     0.032165
      dxy     :     0.015683

  3 H s       :     0.771051  s :     0.771051
      pz      :     0.010947  p :     0.045615
      px      :     0.009980
      py      :     0.024688

  4 C s       :     2.837604  s :     2.837604
      pz      :     1.052681  p :     2.944428
      px      :     1.068682
      py      :     0.823065
      dz2     :     0.019006  d :     0.131756
      dxz     :     0.030318
      dyz     :     0.026941
      dx2y2   :     0.030998
      dxy     :     0.024493

  5 H s       :     0.775815  s :     0.775815
      pz      :     0.019701  p :     0.041421
      px      :     0.016131
      py      :     0.005589

  6 C s       :     2.966822  s :     2.966822
      pz      :     1.101673  p :     3.351310
      px      :     1.142445
      py      :     1.107193
      dz2     :     0.009372  d :     0.060770
      dxz     :     0.019392
      dyz     :     0.011776
      dx2y2   :     0.009378
      dxy     :     0.010852

  7 H s       :     0.789055  s :     0.789055
      pz      :     0.010751  p :     0.043903
      px      :     0.020298
      py      :     0.012854

  8 H s       :     0.791237  s :     0.791237
      pz      :     0.009199  p :     0.043345
      px      :     0.010007
      py      :     0.024138

  9 H s       :     0.774719  s :     0.774719
      pz      :     0.019376  p :     0.044908
      px      :     0.017888
      py      :     0.007644

 10 C s       :     2.962608  s :     2.962608
      pz      :     1.149979  p :     3.348396
      px      :     1.077607
      py      :     1.120810
      dz2     :     0.007348  d :     0.060457
      dxz     :     0.019848
      dyz     :     0.009283
      dx2y2   :     0.012888
      dxy     :     0.011089

 11 H s       :     0.776337  s :     0.776337
      pz      :     0.019517  p :     0.044395
      px      :     0.016935
      py      :     0.007943

 12 H s       :     0.788260  s :     0.788260
      pz      :     0.010027  p :     0.043281
      px      :     0.008573
      py      :     0.024681

 13 H s       :     0.774021  s :     0.774021
      pz      :     0.020257  p :     0.045056
      px      :     0.011162
      py      :     0.013637

 14 C s       :     2.765410  s :     2.765410
      pz      :     0.910519  p :     2.830318
      px      :     0.987663
      py      :     0.932136
      dz2     :     0.014431  d :     0.155323
      dxz     :     0.025538
      dyz     :     0.020985
      dx2y2   :     0.043491
      dxy     :     0.050877

 15 C s       :     2.889631  s :     2.889631
      pz      :     1.042575  p :     3.188340
      px      :     1.045971
      py      :     1.099794
      dz2     :     0.005759  d :     0.077906
      dxz     :     0.012598
      dyz     :     0.007992
      dx2y2   :     0.027881
      dxy     :     0.023676

 16 H s       :     0.771897  s :     0.771897
      pz      :     0.013023  p :     0.046232
      px      :     0.009754
      py      :     0.023455

 17 C s       :     2.908364  s :     2.908364
      pz      :     0.964328  p :     3.134779
      px      :     1.096270
      py      :     1.074181
      dz2     :     0.007531  d :     0.082118
      dxz     :     0.007628
      dyz     :     0.014155
      dx2y2   :     0.028171
      dxy     :     0.024633

 18 H s       :     0.781099  s :     0.781099
      pz      :     0.009301  p :     0.044148
      px      :     0.027757
      py      :     0.007091

 19 C s       :     2.903644  s :     2.903644
      pz      :     1.011121  p :     3.187137
      px      :     1.092076
      py      :     1.083940
      dz2     :     0.007386  d :     0.081200
      dxz     :     0.011595
      dyz     :     0.008877
      dx2y2   :     0.025232
      dxy     :     0.028108

 20 H s       :     0.780713  s :     0.780713
      pz      :     0.009303  p :     0.044549
      px      :     0.015740
      py      :     0.019505

 21 C s       :     2.901395  s :     2.901395
      pz      :     0.970356  p :     3.126426
      px      :     1.083822
      py      :     1.072249
      dz2     :     0.005659  d :     0.081561
      dxz     :     0.014574
      dyz     :     0.007668
      dx2y2   :     0.025474
      dxy     :     0.028187

 22 H s       :     0.776263  s :     0.776263
      pz      :     0.011651  p :     0.044417
      px      :     0.009259
      py      :     0.023508

 23 C s       :     2.841618  s :     2.841618
      pz      :     1.005811  p :     3.114907
      px      :     1.064254
      py      :     1.044842
      dz2     :     0.008923  d :     0.099431
      dxz     :     0.013389
      dyz     :     0.013171
      dx2y2   :     0.032024
      dxy     :     0.031925

 24 Cls       :     5.710735  s :     5.710735
      pz      :     3.536297  p :    11.269665
      px      :     3.877167
      py      :     3.856202
      dz2     :     0.020059  d :     0.056934
      dxz     :     0.017957
      dyz     :     0.015334
      dx2y2   :     0.001774
      dxy     :     0.001811

 25 Cls       :     5.712512  s :     5.712512
      pz      :     3.701091  p :    11.280688
      px      :     3.885909
      py      :     3.693687
      dz2     :     0.017202  d :     0.056242
      dxz     :     0.010625
      dyz     :     0.014594
      dx2y2   :     0.004909
      dxy     :     0.008911

 26 C s       :     2.965276  s :     2.965276
      pz      :     0.752891  p :     2.519001
      px      :     0.959880
      py      :     0.806230
      dz2     :     0.022240  d :     0.170422
      dxz     :     0.039900
      dyz     :     0.018529
      dx2y2   :     0.048693
      dxy     :     0.041061

 27 O s       :     3.545223  s :     3.545223
      pz      :     1.495254  p :     4.516821
      px      :     1.526313
      py      :     1.495255
      dz2     :     0.022588  d :     0.175961
      dxz     :     0.039125
      dyz     :     0.017700
      dx2y2   :     0.040499
      dxy     :     0.056048



                      *****************************
                      * MAYER POPULATION ANALYSIS *
                      *****************************

  NA   - Mulliken gross atomic population
  ZA   - Total nuclear charge
  QA   - Mulliken gross atomic charge
  VA   - Mayer's total valence
  BVA  - Mayer's bonded valence
  FA   - Mayer's free valence

  ATOM       NA         ZA         QA         VA         BVA        FA
  0 Ru    15.8936    16.0000     0.1064     5.5922     5.5922    -0.0000
  1 O      8.0914     8.0000    -0.0914     2.0314     2.0314     0.0000
  2 C      6.1055     6.0000    -0.1055     3.5349     3.5349    -0.0000
  3 H      0.8506     1.0000     0.1494     0.9587     0.9587    -0.0000
  4 C      6.0728     6.0000    -0.0728     3.6490     3.6490     0.0000
  5 H      0.8462     1.0000     0.1538     0.9495     0.9495     0.0000
  6 C      6.4190     6.0000    -0.4190     3.7093     3.7093    -0.0000
  7 H      0.8450     1.0000     0.1550     0.9664     0.9664    -0.0000
  8 H      0.8402     1.0000     0.1598     0.9615     0.9615    -0.0000
  9 H      0.8072     1.0000     0.1928     0.9572     0.9572    -0.0000
 10 C      6.4636     6.0000    -0.4636     3.6759     3.6759    -0.0000
 11 H      0.8190     1.0000     0.1810     0.9630     0.9630    -0.0000
 12 H      0.8472     1.0000     0.1528     0.9629     0.9629    -0.0000
 13 H      0.8065     1.0000     0.1935     0.9557     0.9557    -0.0000
 14 C      5.7352     6.0000     0.2648     3.9245     3.9245    -0.0000
 15 C      6.2547     6.0000    -0.2547     3.7570     3.7570    -0.0000
 16 H      0.8459     1.0000     0.1541     0.9674     0.9674    -0.0000
 17 C      6.1235     6.0000    -0.1235     3.8005     3.8005    -0.0000
 18 H      0.8462     1.0000     0.1538     0.9662     0.9662    -0.0000
 19 C      6.1542     6.0000    -0.1542     3.8088     3.8088     0.0000
 20 H      0.8464     1.0000     0.1536     0.9681     0.9681     0.0000
[...]
 33:    623.70   0.000240    1.21  0.000120  (-0.004984 -0.009139 -0.003451)
 34:    629.68   0.003150   15.92  0.001561  ( 0.031879 -0.020223 -0.011646)
 35:    728.70   0.000077    0.39  0.000033  (-0.001930  0.001400  0.005239)
 36:    750.99   0.011797   59.61  0.004902  (-0.009755  0.021851 -0.065797)
 37:    795.51   0.001218    6.16  0.000478  ( 0.021198 -0.005119  0.001558)
 38:    818.48   0.002957   14.94  0.001128  (-0.005200 -0.032838 -0.004710)
 39:    834.88   0.004012   20.27  0.001500  ( 0.004033 -0.009025  0.037442)
 40:    862.19   0.001152    5.82  0.000417  ( 0.003251 -0.006496  0.019088)
 41:    870.04   0.002099   10.61  0.000753  (-0.020698  0.017963  0.001343)
 42:    898.53   0.005860   29.62  0.002035  ( 0.036094 -0.024907 -0.010589)
 43:    941.12   0.006381   32.25  0.002116  (-0.003132 -0.044197 -0.012353)
 44:    944.19   0.006349   32.09  0.002098  ( 0.003913  0.045642  0.000064)
 45:    946.00   0.000685    3.46  0.000226  ( 0.007532  0.007634  0.010539)
 46:    952.88   0.001378    6.96  0.000451  ( 0.003884  0.018891  0.008911)
 47:    976.35   0.000013    0.06  0.000004  (-0.001001  0.001563  0.000789)
 48:   1063.86   0.001333    6.74  0.000391  ( 0.009855  0.016963  0.002503)
 49:   1121.52   0.016894   85.38  0.004701  ( 0.012463 -0.063647 -0.022241)
 50:   1146.09   0.007952   40.19  0.002165  ( 0.002524  0.044745  0.012523)
 51:   1161.91   0.001688    8.53  0.000453  ( 0.013496 -0.009453  0.013481)
 52:   1190.64   0.001666    8.42  0.000437  ( 0.010649 -0.013417 -0.011965)
 53:   1206.18   0.002358   11.92  0.000610  ( 0.002763  0.024333 -0.003236)
 54:   1212.12   0.001119    5.66  0.000288  ( 0.016429  0.001100 -0.004135)
 55:   1248.75   0.008531   43.11  0.002132  ( 0.015516  0.043209  0.004918)
 56:   1286.49   0.005226   26.41  0.001268  ( 0.019174 -0.027665 -0.011609)
 57:   1340.57   0.009664   48.84  0.002250  ( 0.044861  0.015303 -0.001720)
 58:   1354.28   0.001827    9.23  0.000421  ( 0.008574 -0.018553  0.001813)
 59:   1371.94   0.001920    9.70  0.000437  (-0.018066  0.008128  0.006653)
 60:   1379.61   0.001402    7.08  0.000317  ( 0.013467 -0.011385  0.002475)
 61:   1400.71   0.004644   23.47  0.001035  ( 0.021670  0.000393  0.023770)
 62:   1414.99   0.008018   40.52  0.001768  (-0.000669 -0.041842  0.004151)
 63:   1472.08   0.001073    5.42  0.000227  ( 0.008602  0.008012  0.009451)
 64:   1482.18   0.001378    6.96  0.000290  (-0.014946  0.003629  0.007322)
 65:   1486.49   0.007472   37.76  0.001569  ( 0.025069  0.030660  0.000432)
 66:   1489.21   0.002084   10.53  0.000437  (-0.002008  0.009991  0.018246)
 67:   1500.31   0.007259   36.68  0.001510  ( 0.017073  0.034783  0.002921)
 68:   1511.82   0.004170   21.08  0.000861  (-0.000982 -0.025907 -0.013737)
 69:   1605.61   0.002783   14.06  0.000541  ( 0.005921  0.021659  0.006056)
 70:   1626.34   0.012492   63.13  0.002397  ( 0.046615  0.013809 -0.005772)
 71:   2069.30   0.187214  946.10  0.028233  (-0.151943  0.057522  0.042867)
 72:   3022.04   0.001152    5.82  0.000119  ( 0.006940  0.005822  0.006071)
 73:   3027.61   0.002477   12.52  0.000255  (-0.009093  0.013041 -0.001596)
 74:   3036.47   0.002593   13.10  0.000267  (-0.009680 -0.001012  0.013107)
 75:   3107.77   0.001150    5.81  0.000116  (-0.006800  0.006207  0.005543)
 76:   3109.20   0.000844    4.27  0.000085  (-0.004705  0.006924  0.003829)
 77:   3115.38   0.002887   14.59  0.000289  ( 0.001386  0.014004  0.009549)
 78:   3128.82   0.000649    3.28  0.000065  ( 0.007305  0.003108 -0.001301)
 79:   3133.36   0.000491    2.48  0.000049  ( 0.000236  0.003363 -0.006129)
 80:   3172.33   0.000110    0.56  0.000011  (-0.000939  0.002944  0.001128)
 81:   3179.08   0.000434    2.20  0.000043  ( 0.004237 -0.004118 -0.002780)
 82:   3195.26   0.001769    8.94  0.000173  ( 0.009260  0.009190  0.001619)
 83:   3214.22   0.000440    2.22  0.000043  ( 0.003884 -0.004930 -0.001831)

* The epsilon (eps) is given for a Dirac delta lineshape.
** The dipole moment derivative (T) already includes vibrational overlap.

The first frequency considered to be a vibration is 6
The total number of vibrations considered is 78


--------------------------
THERMOCHEMISTRY AT 298.15K
--------------------------

Temperature         ...   298.15 K
Pressure            ...     1.00 atm
Total Mass          ...   348.19 AMU
Quasi RRHO          ...     True
Cut-Off Frequency   ...     1.00 cm^-1

Throughout the following assumptions are being made:
  (1) The electronic state is orbitally nondegenerate
  (2) There are no thermally accessible electronically excited states
  (3) Hindered rotations indicated by low frequency modes are not
      treated as such but are treated as vibrations and this may
      cause some error
  (4) All equations used are the standard statistical mechanics
      equations for an ideal gas
  (5) All vibrations are strictly harmonic

freq.      49.32  E(vib)   ...       0.52 
freq.      76.15  E(vib)   ...       0.49 
freq.      80.41  E(vib)   ...       0.48 
freq.      83.09  E(vib)   ...       0.48 
freq.     104.43  E(vib)   ...       0.46 
freq.     110.95  E(vib)   ...       0.45 
freq.     115.73  E(vib)   ...       0.44 
freq.     133.19  E(vib)   ...       0.42 
freq.     146.52  E(vib)   ...       0.41 
freq.     154.95  E(vib)   ...       0.40 
freq.     209.62  E(vib)   ...       0.34 
freq.     224.35  E(vib)   ...       0.33 
freq.     234.64  E(vib)   ...       0.32 
freq.     245.70  E(vib)   ...       0.31 
freq.     280.69  E(vib)   ...       0.28 
freq.     313.67  E(vib)   ...       0.25 
freq.     328.39  E(vib)   ...       0.24 
freq.     355.71  E(vib)   ...       0.22 
freq.     372.90  E(vib)   ...       0.21 
freq.     386.36  E(vib)   ...       0.20 
freq.     445.65  E(vib)   ...       0.17 
freq.     454.99  E(vib)   ...       0.16 
freq.     494.96  E(vib)   ...       0.14 
freq.     543.60  E(vib)   ...       0.12 
freq.     550.41  E(vib)   ...       0.12 
freq.     567.55  E(vib)   ...       0.11 
freq.     569.27  E(vib)   ...       0.11 
freq.     623.70  E(vib)   ...       0.09 
freq.     629.68  E(vib)   ...       0.09 
freq.     728.70  E(vib)   ...       0.06 
freq.     750.99  E(vib)   ...       0.06 
freq.     795.51  E(vib)   ...       0.05 
freq.     818.48  E(vib)   ...       0.05 
freq.     834.88  E(vib)   ...       0.04 
freq.     862.19  E(vib)   ...       0.04 
freq.     870.04  E(vib)   ...       0.04 
freq.     898.53  E(vib)   ...       0.03 
freq.     941.12  E(vib)   ...       0.03 
freq.     944.19  E(vib)   ...       0.03 
freq.     946.00  E(vib)   ...       0.03 
freq.     952.88  E(vib)   ...       0.03 
freq.     976.35  E(vib)   ...       0.03 
freq.    1063.86  E(vib)   ...       0.02 
freq.    1121.52  E(vib)   ...       0.01 
freq.    1146.09  E(vib)   ...       0.01 
freq.    1161.91  E(vib)   ...       0.01 
freq.    1190.64  E(vib)   ...       0.01 
freq.    1206.18  E(vib)   ...       0.01 
freq.    1212.12  E(vib)   ...       0.01 
freq.    1248.75  E(vib)   ...       0.01 
freq.    1286.49  E(vib)   ...       0.01 
freq.    1340.57  E(vib)   ...       0.01 
freq.    1354.28  E(vib)   ...       0.01 
freq.    1371.94  E(vib)   ...       0.01 
freq.    1379.61  E(vib)   ...       0.01 
freq.    1400.71  E(vib)   ...       0.00 
freq.    1414.99  E(vib)   ...       0.00 
freq.    1472.08  E(vib)   ...       0.00 
freq.    1482.18  E(vib)   ...       0.00 
freq.    1486.49  E(vib)   ...       0.00 
freq.    1489.21  E(vib)   ...       0.00 
freq.    1500.31  E(vib)   ...       0.00 
freq.    1511.82  E(vib)   ...       0.00 
freq.    1605.61  E(vib)   ...       0.00 
freq.    1626.34  E(vib)   ...       0.00 
freq.    2069.30  E(vib)   ...       0.00 
freq.    3022.04  E(vib)   ...       0.00 
freq.    3027.61  E(vib)   ...       0.00 
freq.    3036.47  E(vib)   ...       0.00 
freq.    3107.77  E(vib)   ...       0.00 
freq.    3109.20  E(vib)   ...       0.00 
freq.    3115.38  E(vib)   ...       0.00 
freq.    3128.82  E(vib)   ...       0.00 
freq.    3133.36  E(vib)   ...       0.00 
freq.    3172.33  E(vib)   ...       0.00 
freq.    3179.08  E(vib)   ...       0.00 
freq.    3195.26  E(vib)   ...       0.00 
freq.    3214.22  E(vib)   ...       0.00 

------------
INNER ENERGY
------------

The inner energy is: U= E(el) + E(ZPE) + E(vib) + E(rot) + E(trans)
    E(el)   - is the total energy from the electronic structure calculation
              = E(kin-el) + E(nuc-el) + E(el-el) + E(nuc-nuc)
    E(ZPE)  - the the zero temperature vibrational energy from the frequency calculation
    E(vib)  - the the finite temperature correction to E(ZPE) due to population
              of excited vibrational states
    E(rot)  - is the rotational thermal energy
    E(trans)- is the translational thermal energy

Summary of contributions to the inner energy U:
Electronic energy                ...  -1592.17879921 Eh
Zero point energy                ...      0.20683707 Eh     129.79 kcal/mol
Thermal vibrational correction   ...      0.01443579 Eh       9.06 kcal/mol
Thermal rotational correction    ...      0.00141627 Eh       0.89 kcal/mol
Thermal translational correction ...      0.00141627 Eh       0.89 kcal/mol
-----------------------------------------------------------------------
Total thermal energy                  -1591.95469380 Eh


Summary of corrections to the electronic energy:
(perhaps to be used in another calculation)
Total thermal correction                  0.01726833 Eh      10.84 kcal/mol
Non-thermal (ZPE) correction              0.20683707 Eh     129.79 kcal/mol
-----------------------------------------------------------------------
Total correction                          0.22410541 Eh     140.63 kcal/mol


--------
ENTHALPY
--------

The enthalpy is H = U + kB*T
                kB is Boltzmann's constant
Total thermal energy              ...  -1591.95469380 Eh 
Thermal Enthalpy correction       ...      0.00094421 Eh       0.59 kcal/mol
-----------------------------------------------------------------------
Total Enthalpy                    ...  -1591.95374959 Eh


Note: Only C1 symmetry has been detected, increase convergence thresholds 
      if your molecule has a higher symmetry. Symmetry factor of 1.0 is   
      used for the rotational entropy correction. 
 

Note: Rotational entropy computed according to Herzberg 
Infrared and Raman Spectra, Chapter V,1, Van Nostrand Reinhold, 1945 
Point Group:  C1, Symmetry Number:   1  
Rotational constants in cm-1:     0.016130     0.009969     0.008518 

Vibrational entropy computed according to the QRRHO of S. Grimme
Chem.Eur.J. 2012 18 9955 using a reference frequency of 100.0 cm-1


-------
ENTROPY
-------

The entropy contributions are T*S = T*(S(el)+S(vib)+S(rot)+S(trans))
     S(el)   - electronic entropy
     S(vib)  - vibrational entropy
     S(rot)  - rotational entropy
     S(trans)- translational entropy
The entropies will be listed as multiplied by the temperature to get
units of energy

Electronic entropy                ...      0.00000000 Eh      0.00 kcal/mol
Vibrational entropy               ...      0.02554202 Eh     16.03 kcal/mol
Rotational entropy                ...      0.01588444 Eh      9.97 kcal/mol
Translational entropy             ...      0.02063816 Eh     12.95 kcal/mol
-----------------------------------------------------------------------
Final entropy term                ...      0.06206462 Eh     38.95 kcal/mol

In case the symmetry of your molecule has not been determined correctly
or in case you have a reason to use a different symmetry number we print 
out the resulting rotational entropy values for sn=1,12:

 non-linear molecules -----------------------------------
|  sn= 1 | S(rot)=       0.01588444 Eh      9.97 kcal/mol|
|  sn= 2 | S(rot)=       0.01522998 Eh      9.56 kcal/mol|
|  sn= 3 | S(rot)=       0.01484715 Eh      9.32 kcal/mol|
|  sn= 4 | S(rot)=       0.01457553 Eh      9.15 kcal/mol|
|  sn= 5 | S(rot)=       0.01436484 Eh      9.01 kcal/mol|
|  sn= 6 | S(rot)=       0.01419270 Eh      8.91 kcal/mol|
|  sn= 7 | S(rot)=       0.01404715 Eh      8.81 kcal/mol|
|  sn= 8 | S(rot)=       0.01392107 Eh      8.74 kcal/mol|
|  sn= 9 | S(rot)=       0.01380986 Eh      8.67 kcal/mol|
|  sn=10 | S(rot)=       0.01371038 Eh      8.60 kcal/mol|
|  sn=11 | S(rot)=       0.01362039 Eh      8.55 kcal/mol|
|  sn=12 | S(rot)=       0.01353824 Eh      8.50 kcal/mol|
 linear molecules ---------------------------------------
|  Dinfh | S(rot)=       0.00982532 Eh      6.17 kcal/mol|
|  Cinfv | S(rot)=       0.01047978 Eh      6.58 kcal/mol|
 --------------------------------------------------------


-------------------
GIBBS FREE ENERGY
-------------------

The Gibbs free energy is G = H - T*S

Total enthalpy                    ...  -1591.95374959 Eh 
Total entropy correction          ...     -0.06206462 Eh    -38.95 kcal/mol
-----------------------------------------------------------------------
Final Gibbs free energy         ...  -1592.01581421 Eh

For completeness - the Gibbs free energy minus the electronic energy
G-E(el)                           ...      0.16298500 Eh    102.27 kcal/mol


Maximum memory used throughout the entire PROP-calculation: 76.4 MB

Timings for individual modules:

Sum of individual times          ...      344.530 sec (=   5.742 min)
Startup calculation              ...        4.044 sec (=   0.067 min)   1.2 %
SCF iterations                   ...        9.752 sec (=   0.163 min)   2.8 %
Property integrals               ...      170.601 sec (=   2.843 min)  49.5 %
SCF Response                     ...      106.304 sec (=   1.772 min)  30.9 %
Property calculations            ...       53.829 sec (=   0.897 min)  15.6 %
================================================================================

cite the ECPs for Ru [Def2-ECP] as follows:
Ce-Yb(ecp-28): M. Dolg, H. Stoll, H.Preuss, J. Chem. Phys., 1989, 90, 1730-1734.
Y-Cd(ecp-28), Hf-Hg(ecp-46): D. Andrae,U. Haeussermann, M. Dolg, H. Stoll, H. Preuss, Theor. Chim. Acta, 1990, 77, 123-141.
In-Sb(ecp-28), Tl-Bi(ecp-46): B. Metz, H. Stoll, M. Dolg, J. Chem. Phys., 2000, 113, 2563-2569.
Te-Xe(ecp-28), Po-Rn(ecp-46): K. A. Peterson, D. Figgen, E. Goll, H. Stoll, M. Dolg, J. Chem. Phys., 2003, 119, 11113-11123.
Rb(ecp-28), Cs(ecp-46): T. Leininger, A. Nicklass, W. Kuechle, H. Stoll, M. Dolg, A. Bergner, Chem. Phys. Lett., 1996, 255, 274-280.
Sr(ecp-28), Ba(ecp-46): M. Kaupp, P. V. Schleyer, H. Stoll and H. Preuss, J. Chem. Phys., 1991, 94, 1360-1366.
La(ecp-46): M. Dolg, H. Stoll, A. Savin, H. Preuss, Theor. Chim. Acta, 1989, 75, 173-194.
Lu(ecp-28): X. Cao, M. Dolg, J. Chem. Phys., 2001, 115, 7348-7355.

ECP parameters for Ru [Def2-ECP] have been obtained from:
TURBOMOLE (7.0.2)

----- Orbital basis set information -----
Your calculation utilizes the basis: def2-SVP
   F. Weigend and R. Ahlrichs, Phys. Chem. Chem. Phys. 7, 3297 (2005).


--------------------------------
SUGGESTED CITATIONS FOR THIS RUN
--------------------------------

Below you find a list of papers that are relevant to this ORCA run
We neither can nor want to force you to cite these papers, but we appreciate if you do
You receive ORCA, which is the product of decades of hard work by many enthusiastic individuals, for free
The only thing we kindly ask in return is that you cite our papers,
We deeply appreciate it, if you show your appreciation for ORCA by not just citing the generic ORCA reference.

Please note that relegating all ORCA citations to the supporting information does *not* help us.
SI sections are not indexed - citations you put there will not count into any citation statistics
But we need these citations in order to attract the funding resources that allow us to do what we are doing

Therefore, if you are a happy ORCA user, please consider citing a few of the papers listed below in the main body of your paper

In addition to the list printed below, the program has created the file cli48.bibtex that contains the list in bibtex format
You can import this file easily into all common literature databanks and citation aid programs


List of essential papers. We consider these as the minimum necessary citations

  1. Neese,F.
     Software update: the ORCA program system, version 5.0
     WIRES Comput. Molec. Sci., 2022 12(1)e1606
     doi.org/10.1002/wcms.1606
  2. Grimme,S.; Hansen,A.; Ehlert,S.; Mewes,J.
     r2SCAN-3c: A 'Swiss army knife' composite electronic-structure method
     J. Chem. Phys., 2021 154 064103
     doi.org/10.1063/5.0040021

List of papers to cite with high priority. The work reported in these papers was absolutely
necessary for this run to complete.
Our perspective: the developers of density functionals and basis sets usually get cited in chemistry papers
Good! But without the algorithms to do something with them, the functionals or basis sets would not do anything.
Hence, in our opinion, the algorithm design and method developments papers are equally worthy of getting cited

  1. Neese,F.
     An improvement of the resolution of the identity approximation for the formation of the Coulomb matrix
     J. Comp. Chem., 2003 24(14)1740-1747
     doi.org/10.1002/jcc.10318
  2. Bykov,D.; Petrenko,T.; Izsak,R.; Kossmann,S.; Becker,U.; Valeev,E.; Neese,F.
     Efficient implementation of the analytic second derivatives of Hartree-Fock and hybrid DFT energies: a detailed analysis of different approximations
     Molec. Phys., 2015 113 1961-1977
     doi.org/10.1080/00268976.2015.1025114
  3. Neese,F.
     The SHARK Integral Generation and Digestion System
     J. Comp. Chem., 2022  1-16
     doi.org/10.1002/jcc.26942
  4. Lehtola,S.; Steigemann,C.; Oliveira,M.; Marques,M.
     Recent developments in Libxc - A comprehensive library of functionals for density functional theory
     Software X, 2018 7 
     doi.org/10.1016/j.softx.2017.11.002
  5. Caldeweyher,E.; Bannwarth,C.; Grimme,S.
     Extension of the D3 dispersion coefficient model
     J. Chem. Phys., 2017 147 034112
     doi.org/10.1063/1.4993215
  6. Caldeweyher,E.; Ehlert,S.; Hansen,A.; Neugebauer,H.; Spicher,S.; Bannwarth,C.; Grimme,S.
     A generally applicable atomic-charge dependent London dispersion correction
     J. Chem. Phys., 2019 150 154122
     doi.org/10.1063/1.5090222
  7. Caldeweyher,E.; Mewes,J.; Ehlert,S.; Grimme,S.
     Extension and evaluation of the D4 London-dispersion model for periodic systems
     Phys. Chem. Chem. Phys., 2020 22(16)8499-8512
     doi.org/10.1039/D0CP00502A
  8. Wittmann,L.; Gordiy,I.; Friede,M.; Helmich-Paris,B.; Grimme,S.; Hansen,A.; Bursch,M.
     Extension of the D3 and D4 London Dispersion Corrections to the full Actinides Series
     Phys. Chem. Chem. Phys., 2024 26(32)21379-21394
     doi.org/https://doi.org/10.1039/D4CP01514B 

List of suggested additional citations. These are papers that are important in the 'surrounding' of 
of this run, or papers that preceded the highly important papers. If you like your results we are grateful for a citation.

  1. Neese,F.
     The ORCA program system
     WIRES Comput. Molec. Sci., 2012 2(1)73-78
     doi.org/10.1002/wcms.81
  2. Neese,F.
     Software update: the ORCA program system, version 4.0
     WIRES Comput. Molec. Sci., 2018 8(1)1-6
     doi.org/10.1002/wcms.1327
  3. Neese,F.; Wennmohs,F.; Becker,U.; Riplinger,C.
     The ORCA quantum chemistry program package
     J. Chem. Phys., 2020 152 Art. No. L224108
     doi.org/10.1063/5.0004608

List of optional additional citations

  1. Neese,F.
     Approximate second-order SCF convergence for spin unrestricted wavefunctions
     Chem. Phys. Lett., 2000 325(1-3)93-98
     doi.org/10.1016/s0009-2614(00)00662-x
                             ****ORCA TERMINATED NORMALLY****
TOTAL RUN TIME: 0 days 0 hours 8 minutes 19 seconds 818 msec
7457.01user 540.04system 8:20.79elapsed 1596%CPU (0avgtext+0avgdata 742356maxresident)k
163492542inputs+9315684outputs (369731major+30777408minor)pagefaults 0swaps
