
                                 *****************
                                 * O   R   C   A *
                                 *****************

                                            #,                                       
                                            ###                                      
                                            ####                                     
                                            #####                                    
                                            ######                                   
                                           ########,                                 
                                     ,,################,,,,,                         
                               ,,#################################,,                 
                          ,,##########################################,,             
                       ,#########################################, ''#####,          
                    ,#############################################,,   '####,        
                  ,##################################################,,,,####,       
                ,###########''''           ''''###############################       
              ,#####''   ,,,,##########,,,,          '''####'''          '####       
            ,##' ,,,,###########################,,,                        '##       
           ' ,,###''''                  '''############,,,                           
         ,,##''                                '''############,,,,        ,,,,,,###''
      ,#''                                            '''#######################'''  
     '                                                          ''''####''''         
             ,#######,   #######,   ,#######,      ##                                
            ,#'     '#,  ##    ##  ,#'     '#,    #''#        ,####,   ,####,        
            ##       ##  ##   ,#'  ##            #'  '#       #'       #'  '#        
            ##       ##  #######   ##           ,######,      #####,   #    #        
            '#,     ,#'  ##    ##  '#,     ,#' ,#      #,     #,   #   #,  ,#        
             '#######'   ##     ##  '#######'  #'      '#     '####' # '####'        



                #########################################################
                #                        -***-                          #
                #          Department of theory and spectroscopy        #
                #                                                       #
                #                      Frank Neese                      #
                #                                                       #
                #     Directorship, Architecture, Infrastructure        #
                #                    SHARK, DRIVERS                     #
                #        Core code/Algorithms in most modules           #
                #                                                       #
                #        Max Planck Institute fuer Kohlenforschung      #
                #                Kaiser Wilhelm Platz 1                 #
                #                 D-45470 Muelheim/Ruhr                 #
                #                      Germany                          #
                #                                                       #
                #                  All rights reserved                  #
                #                        -***-                          #
                #########################################################


                         Program Version 6.0.1  -  RELEASE   -


 With contributions from (in alphabetic order):
[Max-Planck-Institut fuer Kohlenforschung]                               
  Daniel Aravena         : Magnetic Suceptibility                        
  Michael Atanasov       : Ab Initio Ligand Field Theory (pilot matlab implementation)
  Alexander A. Auer      : GIAO ZORA, VPT2 properties, NMR spectrum      
  Ute Becker             : All parallelization in ORCA, NUMFREQ, NUMCALC 
  Giovanni Bistoni       : ED, misc. LED, open-shell LED, HFLD           
  Martin Brehm           : Molecular dynamics                            
  Dmytro Bykov           : pre 5.0 version of the SCF Hessian            
  Marcos Casanova-Páez   : Triplet and SCS-CIS(D). UHF-(DLPNO)-IP/EA/STEOM-CCSD. UHF-CVS-IP/STEOM-CCSD   
  Vijay G. Chilkuri      : MRCI spin determinant printing, contributions to CSF-ICE 
  Pauline Colinet        : FMM embedding                                 
  Dipayan Datta          : RHF DLPNO-CCSD density                        
  Achintya Kumar Dutta   : EOM-CC, STEOM-CC                              
  Nicolas Foglia         : Exact transition moments, OPA infrastructure, MCD improvements    
  Dmitry Ganyushin       : Spin-Orbit,Spin-Spin,Magnetic field MRCI      
  Miquel Garcia-Rates    : C-PCM and meta-GGA Hessian, CCSD/C-PCM, Gaussian charge scheme 
  Tiago L. C. Gouveia    : GS-ROHF, GS-ROCIS                             
  Yang Guo               : DLPNO-NEVPT2, F12-NEVPT2, CIM, IAO-localization        
  Andreas Hansen         : Spin unrestricted coupled pair/coupled cluster methods 
  Ingolf Harden          : AUTO-CI MPn and infrastructure                
  Benjamin Helmich-Paris : MC-RPA, TRAH-(SCF,CASSCF), AVAS, COSX integrals, SCF dyn. polar. 
  Lee Huntington         : MR-EOM, pCC                                   
  Robert Izsak           : Overlap fitted RIJCOSX, COSX-SCS-MP3, EOM     
  Riya Kayal             : Wick's Theorem for AUTO-CI, AUTO-CI UHF-CCSDT 
  Emily Kempfer          : AUTO-CI, RHF CISDT and CCSDT                  
  Christian Kollmar      : KDIIS, OOCD, Brueckner-CCSD(T), CCSD density, CASPT2, CASPT2-K, improved NEVPT2 
  Axel Koslowski         : Symmetry handling                             
  Simone Kossmann        : meta-GGA functionals, TD-DFT gradient, OOMP2, (MP2 Hessian; deprecated post 5.0) 
  Lucas Lang             : DCDCAS                                        
  Marvin Lechner         : AUTO-CI (C++ implementation), FIC-MRCC        
  Spencer Leger          : CASSCF response                               
  Dagmar Lenk            : GEPOL surface, SMD, ORCA-2-JSON               
  Dimitrios Liakos       : Extrapolation schemes; Compound Job, initial MDCI parallelization 
  Dimitrios Manganas     : Further ROCIS development; embedding schemes. LFT, Crystal Embedding 
  Dimitrios Pantazis     : SARC Basis sets                               
  Anastasios Papadopoulos: AUTO-CI, single reference methods and gradients 
  Taras Petrenko         : pre 6.0 DFT Hessian and TD-DFT gradient, (ASA, deprecated), ECA, 1-Electron XAS/XES, NRVS 
  Peter Pinski           : DLPNO-MP2, DLPNO-MP2 Gradient                 
  Christoph Reimann      : Effective Core Potentials                     
  Marius Retegan         : Local ZFS, SOC                                
  Christoph Riplinger    : Optimizer, TS searches, QM/MM, DLPNO-CCSD(T), (RO)-DLPNO pert. Triples 
  Michael Roemelt        : Original ROCIS implementation                 
  Masaaki Saitow         : Open-shell DLPNO-CCSD energy and density      
  Barbara Sandhoefer     : DKH picture change effects                    
  Kantharuban Sivalingam : CASSCF convergence/infrastructure, NEVPT2 and variants, FIC-MRCI 
  Bernardo de Souza      : ESD, SOC TD-DFT                               
  Georgi L. Stoychev     : AutoAux, RI-MP2 NMR, DLPNO-MP2 response, X2C  
  Van Anh Tran           : RI-MP2 g-tensors                              
  Willem Van den Heuvel  : Paramagnetic NMR                              
  Zikuan Wang            : NOTCH, Electric field optimization            
  Frank Wennmohs         : Technical directorship and infrastructure     
  Hang Xu                : AUTO-CI-Response properties                   
                                                                         
[FACCTs GmbH]                                                            
  Markus Bursch, Miquel Garcia-Rates, Christoph Riplinger, Bernardo de Souza, Georgi L. Stoychev 
                                                                 
  APM, Basis sets (HGBS, AHGBS, def-TZVP (Ac-Lr), def2-XVPD (La-Lu)), CI-OPT, improved COSX, DLPNO-Multilevel,           
  DOCKER, DRACO, updates on ESD, GOAT, IRC, LR-CPCM, MBIS, meta-GGA TD-DFT gradient, ML-optimized integration grids, 
  MM, NACMEs, nearIR, NEB, NEB-TS, NL-DFT gradient (VV10), 2- and 3-layer-ONIOM, interface openCOSMO-RS, QMMM,   
  Crystal-QMMM, SF, symmetry and pop. for TD-DFT, r2SCAN hybrids, SOLVATOR                                   
                                                                         
[Other institutions]                                                     
  V. Asgeirsson          : NEB                                           
  Christoph Bannwarth    : sTDA-DFT, sTD-DFT, PBEh-3c, B97-3c, D3        
  Sebastian Ehlert       : rSCAN, r2SCAN, r2SCAN-3c, D4, dhf basis sets  
  Marvin Friede          : D4 for Fr, Ra, Ac-Lr                          
  Lars Goerigk           : TD-DFT with DH, B97 family of functionals     
  Stefan Grimme          : VdW corrections, initial TS optimization, DFT functionals, gCP, sTDA/sTD-DF 
  Waldemar Hujo          : DFT-NL                                        
  H. Jonsson             : NEB                                           
  Holger Kruse           : gCP                                           
  Marcel Mueller         : wB97X-3c, vDZP basis set                      
  Hagen Neugebauer       : wr2SCAN                                       
  Tobias Risthaus        : range-separated hybrid DFT                    
  Lukas Wittmann         : regularized MP2, r2SCAN double-hybrids, wr2SCAN        
                                                                         
We gratefully acknowledge several colleagues who have allowed us to      
interface, adapt or use parts of their codes:                            
  Ed Valeev, F. Pavosevic, A. Kumar             : LibInt (2-el integral package), F12 methods 
  Garnet Chan, S. Sharma, J. Yang, R. Olivares  : DMRG                   
  Ulf Ekstrom                                   : XCFun DFT Library      
  Mihaly Kallay                                 : mrcc  (arbitrary order and MRCC methods)
  Frank Weinhold                                : gennbo (NPA and NBO analysis)           
  Simon Mueller                                 : openCOSMO-RS                            
  Christopher J. Cramer and Donald G. Truhlar   : smd solvation model                     
  S Lehtola, MJT Oliveira, MAL Marques          : LibXC Library                           
  Liviu Ungur et al                             : ANISO software                          


 Your calculation uses the libint2 library for the computation of 2-el integrals
 For citations please refer to: http://libint.valeyev.net

 Your ORCA version has been built with support for libXC version: 6.2.2
 For citations please refer to: https://libxc.gitlab.io

 This ORCA versions uses:
   CBLAS   interface :  Fast vector & matrix operations
   LAPACKE interface :  Fast linear algebra routines
   SCALAPACK package :  Parallel linear algebra routines
   Shared memory     :  Shared parallel matrices
   BLAS/LAPACK       :  OpenBLAS 0.3.27  USE64BITINT DYNAMIC_ARCH NO_AFFINITY SkylakeX SINGLE_THREADED
        Core in use  :  SkylakeX
   Copyright (c) 2011-2014, The OpenBLAS Project


NOTE: MaxCore=1400 MB was set to SCF,MP2,MDCI,CIPSI,MRCI and CIS
      => If you want to overwrite this, your respective input block should be placed after the MaxCore statement
NOTE: MaxCore=1400 MB was set to SCF,MP2,MDCI,CIPSI,MRCI and CIS
      => If you want to overwrite this, your respective input block should be placed after the MaxCore statement
================================================================================

cite the ECPs for Ru [Def2-ECP] as follows:
Ce-Yb(ecp-28): M. Dolg, H. Stoll, H.Preuss, J. Chem. Phys., 1989, 90, 1730-1734.
Y-Cd(ecp-28), Hf-Hg(ecp-46): D. Andrae,U. Haeussermann, M. Dolg, H. Stoll, H. Preuss, Theor. Chim. Acta, 1990, 77, 123-141.
In-Sb(ecp-28), Tl-Bi(ecp-46): B. Metz, H. Stoll, M. Dolg, J. Chem. Phys., 2000, 113, 2563-2569.
Te-Xe(ecp-28), Po-Rn(ecp-46): K. A. Peterson, D. Figgen, E. Goll, H. Stoll, M. Dolg, J. Chem. Phys., 2003, 119, 11113-11123.
Rb(ecp-28), Cs(ecp-46): T. Leininger, A. Nicklass, W. Kuechle, H. Stoll, M. Dolg, A. Bergner, Chem. Phys. Lett., 1996, 255, 274-280.
Sr(ecp-28), Ba(ecp-46): M. Kaupp, P. V. Schleyer, H. Stoll and H. Preuss, J. Chem. Phys., 1991, 94, 1360-1366.
La(ecp-46): M. Dolg, H. Stoll, A. Savin, H. Preuss, Theor. Chim. Acta, 1989, 75, 173-194.
Lu(ecp-28): X. Cao, M. Dolg, J. Chem. Phys., 2001, 115, 7348-7355.

ECP parameters for Ru [Def2-ECP] have been obtained from:
TURBOMOLE (7.0.2)

----- Orbital basis set information -----
Your calculation utilizes the basis: def2-SVP
   F. Weigend and R. Ahlrichs, Phys. Chem. Chem. Phys. 7, 3297 (2005).



################################################################################


                                COMPOUND JOB MainJOB 
Basename: cli48_Compound_0

################################################################################

================================================================================
                                       INPUT FILE
================================================================================
NAME = cli48_Compound_0.inp
|  1> %maxcore 1400
|  2>  %pal nprocs 20 end
|  3>  * xyz 0 1
|  4>      Ru -0.96760000 0.00290000 -0.05310000
|  5>       O 1.04860000 -0.80340000 -0.61220000
|  6>       C 0.10300000 1.48100000 0.36390000
|  7>       H -0.23530000 2.43660000 0.78060000
|  8>       C 1.33580000 -2.14490000 -1.00880000
|  9>       H 2.03970000 -2.12060000 -1.85330000
| 10>       C 1.91610000 -2.92810000 0.16600000
| 11>       H 2.83410000 -2.47000000 0.52700000
| 12>       H 2.13040000 -3.94860000 -0.13860000
| 13>       H 1.19690000 -2.94170000 0.98320000
| 14>       C 0.00010000 -2.72160000 -1.46750000
| 15>       H -0.76070000 -2.54530000 -0.68990000
| 16>       H 0.07880000 -3.79360000 -1.62370000
| 17>       H -0.32250000 -2.24940000 -2.39540000
| 18>       C 1.99680000 0.13530000 -0.41870000
| 19>       C 3.34890000 -0.00770000 -0.69340000
| 20>       H 3.74140000 -0.92990000 -1.09160000
| 21>       C 4.21060000 1.05260000 -0.46130000
| 22>       H 5.26090000 0.93340000 -0.67950000
| 23>       C 3.74110000 2.25690000 0.04720000
| 24>       H 4.42850000 3.06940000 0.22390000
| 25>       C 2.40170000 2.41430000 0.32340000
| 26>       H 2.02690000 3.34790000 0.71510000
| 27>       C 1.49160000 1.36560000 0.09820000
| 28>      Cl -1.30010000 0.36690000 -2.31890000
| 29>      Cl -0.72160000 -1.25660000 1.88980000
| 30>       C -2.77590000 0.66860000 0.55810000
| 31>       O -3.80630000 0.95770000 0.93310000
| 32>  *
| 33> 
| 34>                          ****END OF INPUT****
================================================================================
NOTE: MaxCore=1400 MB was set to SCF,MP2,MDCI,CIPSI,MRCI and CIS
      => If you want to overwrite this, your respective input block should be placed after the MaxCore statement
================================================================================

cite the ECPs for Ru [Def2-ECP] as follows:
Ce-Yb(ecp-28): M. Dolg, H. Stoll, H.Preuss, J. Chem. Phys., 1989, 90, 1730-1734.
Y-Cd(ecp-28), Hf-Hg(ecp-46): D. Andrae,U. Haeussermann, M. Dolg, H. Stoll, H. Preuss, Theor. Chim. Acta, 1990, 77, 123-141.
In-Sb(ecp-28), Tl-Bi(ecp-46): B. Metz, H. Stoll, M. Dolg, J. Chem. Phys., 2000, 113, 2563-2569.
Te-Xe(ecp-28), Po-Rn(ecp-46): K. A. Peterson, D. Figgen, E. Goll, H. Stoll, M. Dolg, J. Chem. Phys., 2003, 119, 11113-11123.
Rb(ecp-28), Cs(ecp-46): T. Leininger, A. Nicklass, W. Kuechle, H. Stoll, M. Dolg, A. Bergner, Chem. Phys. Lett., 1996, 255, 274-280.
Sr(ecp-28), Ba(ecp-46): M. Kaupp, P. V. Schleyer, H. Stoll and H. Preuss, J. Chem. Phys., 1991, 94, 1360-1366.
La(ecp-46): M. Dolg, H. Stoll, A. Savin, H. Preuss, Theor. Chim. Acta, 1989, 75, 173-194.
Lu(ecp-28): X. Cao, M. Dolg, J. Chem. Phys., 2001, 115, 7348-7355.

ECP parameters for Ru [Def2-ECP] have been obtained from:
TURBOMOLE (7.0.2)

----- Orbital basis set information -----
Your calculation utilizes the basis: def2-SVP
   F. Weigend and R. Ahlrichs, Phys. Chem. Chem. Phys. 7, 3297 (2005).



################################################################################


                                COMPOUND JOB  1 
Basename: cli48_Compound_1
NOTE: please remember that MaxCore and PAL settings will be ignored.

################################################################################

================================================================================
                                       INPUT FILE
================================================================================
NAME = cli48_Compound_1.inp
|  1>     ! HF
|  2>     %scf
|  3>       maxiter 1000
|  4>     end
|  5> 
|  6>                          ****END OF INPUT****
================================================================================
================================================================================

cite the ECPs for Ru [Def2-ECP] as follows:
Ce-Yb(ecp-28): M. Dolg, H. Stoll, H.Preuss, J. Chem. Phys., 1989, 90, 1730-1734.
Y-Cd(ecp-28), Hf-Hg(ecp-46): D. Andrae,U. Haeussermann, M. Dolg, H. Stoll, H. Preuss, Theor. Chim. Acta, 1990, 77, 123-141.
In-Sb(ecp-28), Tl-Bi(ecp-46): B. Metz, H. Stoll, M. Dolg, J. Chem. Phys., 2000, 113, 2563-2569.
Te-Xe(ecp-28), Po-Rn(ecp-46): K. A. Peterson, D. Figgen, E. Goll, H. Stoll, M. Dolg, J. Chem. Phys., 2003, 119, 11113-11123.
Rb(ecp-28), Cs(ecp-46): T. Leininger, A. Nicklass, W. Kuechle, H. Stoll, M. Dolg, A. Bergner, Chem. Phys. Lett., 1996, 255, 274-280.
Sr(ecp-28), Ba(ecp-46): M. Kaupp, P. V. Schleyer, H. Stoll and H. Preuss, J. Chem. Phys., 1991, 94, 1360-1366.
La(ecp-46): M. Dolg, H. Stoll, A. Savin, H. Preuss, Theor. Chim. Acta, 1989, 75, 173-194.
Lu(ecp-28): X. Cao, M. Dolg, J. Chem. Phys., 2001, 115, 7348-7355.

ECP parameters for Ru [Def2-ECP] have been obtained from:
TURBOMOLE (7.0.2)

----- Orbital basis set information -----
Your calculation utilizes the basis: def2-SVP
   F. Weigend and R. Ahlrichs, Phys. Chem. Chem. Phys. 7, 3297 (2005).

================================================================================
                                        WARNINGS
                       Please study these warnings very carefully!
================================================================================



                       ****************************
                       * Single Point Calculation *
                       ****************************

---------------------------------
CARTESIAN COORDINATES (ANGSTROEM)
---------------------------------
  Ru    -0.967600    0.002900   -0.053100
  O      1.048600   -0.803400   -0.612200
  C      0.103000    1.481000    0.363900
  H     -0.235300    2.436600    0.780600
  C      1.335800   -2.144900   -1.008800
  H      2.039700   -2.120600   -1.853300
  C      1.916100   -2.928100    0.166000
  H      2.834100   -2.470000    0.527000
  H      2.130400   -3.948600   -0.138600
  H      1.196900   -2.941700    0.983200
  C      0.000100   -2.721600   -1.467500
  H     -0.760700   -2.545300   -0.689900
  H      0.078800   -3.793600   -1.623700
  H     -0.322500   -2.249400   -2.395400
  C      1.996800    0.135300   -0.418700
  C      3.348900   -0.007700   -0.693400
  H      3.741400   -0.929900   -1.091600
  C      4.210600    1.052600   -0.461300
  H      5.260900    0.933400   -0.679500
  C      3.741100    2.256900    0.047200
  H      4.428500    3.069400    0.223900
  C      2.401700    2.414300    0.323400
  H      2.026900    3.347900    0.715100
  C      1.491600    1.365600    0.098200
  Cl    -1.300100    0.366900   -2.318900
  Cl    -0.721600   -1.256600    1.889800
  C     -2.775900    0.668600    0.558100
  O     -3.806300    0.957700    0.933100

----------------------------
CARTESIAN COORDINATES (A.U.)
----------------------------
  NO LB      ZA    FRAG     MASS         X           Y           Z
   0 Ru   16.0000*   0   101.070   -1.828499    0.005480   -0.100344
   1 O     8.0000    0    15.999    1.981567   -1.518206   -1.156890
   2 C     6.0000    0    12.011    0.194642    2.798684    0.687671
   3 H     1.0000    0     1.008   -0.444653    4.604507    1.475120
   4 C     6.0000    0    12.011    2.524296   -4.053274   -1.906356
   5 H     1.0000    0     1.008    3.854474   -4.007353   -3.502229
   6 C     6.0000    0    12.011    3.620904   -5.533307    0.313695
   7 H     1.0000    0     1.008    5.355673   -4.667624    0.995886
   8 H     1.0000    0     1.008    4.025873   -7.461773   -0.261916
   9 H     1.0000    0     1.008    2.261813   -5.559007    1.857979
  10 C     6.0000    0    12.011    0.000189   -5.143079   -2.773173
  11 H     1.0000    0     1.008   -1.437515   -4.809920   -1.303722
  12 H     1.0000    0     1.008    0.148910   -7.168865   -3.068348
  13 H     1.0000    0     1.008   -0.609437   -4.250750   -4.526650
  14 C     6.0000    0    12.011    3.773405    0.255680   -0.791228
  15 C     6.0000    0    12.011    6.328504   -0.014551   -1.310336
  16 H     1.0000    0     1.008    7.070221   -1.757256   -2.062825
  17 C     6.0000    0    12.011    7.956881    1.989126   -0.871731
  18 H     1.0000    0     1.008    9.941660    1.763870   -1.284069
  19 C     6.0000    0    12.011    7.069654    4.264923    0.089195
  20 H     1.0000    0     1.008    8.368652    5.800325    0.423110
  21 C     6.0000    0    12.011    4.538555    4.562366    0.611137
  22 H     1.0000    0     1.008    3.830286    6.326614    1.351343
  23 C     6.0000    0    12.011    2.818716    2.580610    0.185571
  24 Cl   17.0000    0    35.453   -2.456833    0.693341   -4.382086
  25 Cl   17.0000    0    35.453   -1.363626   -2.374630    3.571204
  26 C     6.0000    0    12.011   -5.245691    1.263471    1.054656
  27 O     8.0000    0    15.999   -7.192865    1.809791    1.763303
* core charge reduced due to ECP

--------------------------------
INTERNAL COORDINATES (ANGSTROEM)
--------------------------------
 Ru     0   0   0     0.000000000000     0.00000000     0.00000000
 O      1   0   0     2.242270041721     0.00000000     0.00000000
 C      1   2   0     1.872125254891    79.93534069     0.00000000
 H      3   1   2     1.096018768087   126.62322912   180.95005102
 C      2   1   3     1.428074805464   126.00616513   173.41755978
 H      5   2   1     1.099657196584   108.73860052   138.10692505
 C      5   2   1     1.526533776239   110.16213294   260.00600176
 H      7   5   2     1.087612343622   111.11257216   300.33260447
 H      7   5   2     1.086335997747   109.94809358   179.82792427
 H      7   5   2     1.088691618412   109.44823917    59.86808202
 C      5   2   1     1.525477980831   105.22104601    20.58456552
 H     11   5   2     1.102070818959   109.37900842   308.94612261
 H     11   5   2     1.086174999712   110.66549792   190.05318329
 H     11   5   2     1.089973398758   110.57014779    69.09809286
 C      2   1   3     1.348214812261   110.25743367   358.43673582
 C     15   2   1     1.387113369556   125.82749125   181.79037903
 H     16  15   2     1.078458311665   121.06665905   359.49124318
 C     16  15   2     1.385869182138   119.60654273   179.08506162
 H     18  16  15     1.079328481047   119.12398814   180.11005989
 C     18  16  15     1.389007195806   120.96302013     0.21556910
 H     20  18  16     1.078840998479   119.83909093   179.80501886
 C     20  18  16     1.376609443524   120.09667153   359.71532490
 H     22  20  18     1.079589222807   120.62776634   180.24549582
 C     22  20  18     1.406687150720   120.80593872     0.05063224
 Cl     1   2   3     2.318814759743    86.65992949   100.90145403
 Cl     1   2   3     2.328458000480    85.32817546   258.53693882
 C      1   2   3     2.021551587272   176.49181747   260.66925290
 O     27   1   3     1.133987641026   175.36764634   219.68999983

---------------------------
INTERNAL COORDINATES (A.U.)
---------------------------
 Ru     0   0   0     0.000000000000     0.00000000     0.00000000
 O      1   0   0     4.237276297149     0.00000000     0.00000000
 C      1   2   0     3.537804020141    79.93534069     0.00000000
 H      3   1   2     2.071175309323   126.62322912   180.95005102
 C      2   1   3     2.698670281079   126.00616513   173.41755978
 H      5   2   1     2.078050942740   108.73860052   138.10692505
 C      5   2   1     2.884730771273   110.16213294   260.00600176
 H      7   5   2     2.055289469319   111.11257216   300.33260447
 H      7   5   2     2.052877525161   109.94809358   179.82792427
 H      7   5   2     2.057329003094   109.44823917    59.86808202
 C      5   2   1     2.882735607098   105.22104601    20.58456552
 H     11   5   2     2.082612028018   109.37900842   308.94612261
 H     11   5   2     2.052573282968   110.66549792   190.05318329
 H     11   5   2     2.059751216912   110.57014779    69.09809286
 C      2   1   3     2.547756764869   110.25743367   358.43673582
 C     15   2   1     2.621264385161   125.82749125   181.79037903
 H     16  15   2     2.037990855899   121.06665905   359.49124318
 C     16  15   2     2.618913211682   119.60654273   179.08506162
 H     18  16  15     2.039635237721   119.12398814   180.11005989
 C     18  16  15     2.624843198119   120.96302013     0.21556910
 H     20  18  16     2.038714029172   119.83909093   179.80501886
 C     20  18  16     2.601414841630   120.09667153   359.71532490
 H     22  20  18     2.040127968237   120.62776634   180.24549582
 C     22  20  18     2.658253470966   120.80593872     0.05063224
 Cl     1   2   3     4.381924851208    86.65992949   100.90145403
 Cl     1   2   3     4.400147935245    85.32817546   258.53693882
 C      1   2   3     3.820178865537   176.49181747   260.66925290
 O     27   1   3     2.142926080791   175.36764634   219.68999983

---------------------
BASIS SET INFORMATION
---------------------
There are 5 groups of distinct atoms

 Group   1 Type Ru  : 7s6p5d1f contracted to 5s3p2d1f pattern {31111/411/41/1}
 Group   2 Type O   : 7s4p1d contracted to 3s2p1d pattern {511/31/1}
 Group   3 Type C   : 7s4p1d contracted to 3s2p1d pattern {511/31/1}
 Group   4 Type H   : 4s1p contracted to 2s1p pattern {31/1}
 Group   5 Type Cl  : 10s7p1d contracted to 4s3p1d pattern {5311/511/1}

Atom   0Ru   basis set group =>   1
Atom   1O    basis set group =>   2
Atom   2C    basis set group =>   3
Atom   3H    basis set group =>   4
Atom   4C    basis set group =>   3
Atom   5H    basis set group =>   4
Atom   6C    basis set group =>   3
Atom   7H    basis set group =>   4
Atom   8H    basis set group =>   4
Atom   9H    basis set group =>   4
Atom  10C    basis set group =>   3
Atom  11H    basis set group =>   4
Atom  12H    basis set group =>   4
Atom  13H    basis set group =>   4
Atom  14C    basis set group =>   3
Atom  15C    basis set group =>   3
Atom  16H    basis set group =>   4
Atom  17C    basis set group =>   3
Atom  18H    basis set group =>   4
Atom  19C    basis set group =>   3
Atom  20H    basis set group =>   4
Atom  21C    basis set group =>   3
Atom  22H    basis set group =>   4
Atom  23C    basis set group =>   3
Atom  24Cl   basis set group =>   5
Atom  25Cl   basis set group =>   5
Atom  26C    basis set group =>   3
Atom  27O    basis set group =>   2
-------------------------
ECP PARAMETER INFORMATION
-------------------------

 Group 1, Type Ru ECP Def2-ECP (replacing 28 core electrons, lmax=3)

Atom   0Ru   ECP group =>   1



           ************************************************************
           *        Program running with 20 parallel MPI-processes    *
           *              working on a common directory               *
           ************************************************************
------------------------------------------------------------------------------
                             ORCA STARTUP CALCULATIONS
------------------------------------------------------------------------------
------------------------------------------------------------------------------
                   ___                                                        
                  /   \      - P O W E R E D   B Y -                         
                 /     \                                                     
                 |  |  |   _    _      __       _____    __    __             
                 |  |  |  | |  | |    /  \     |  _  \  |  |  /  |          
                  \  \/   | |  | |   /    \    | | | |  |  | /  /          
                 / \  \   | |__| |  /  /\  \   | |_| |  |  |/  /          
                |  |  |   |  __  | /  /__\  \  |    /   |      \           
                |  |  |   | |  | | |   __   |  |    \   |  |\   \          
                \     /   | |  | | |  |  |  |  | |\  \  |  | \   \       
                 \___/    |_|  |_| |__|  |__|  |_| \__\ |__|  \__/        
                                                                              
                      - O R C A' S   B I G   F R I E N D -                    
                                      &                                       
                       - I N T E G R A L  F E E D E R -                       
                                                                              
 v1 FN, 2020, v2 2021, v3 2022-2024                                           
------------------------------------------------------------------------------


----------------------
SHARK INTEGRAL PACKAGE
----------------------

Number of atoms                             ...     28
Number of basis functions                   ...    309
Number of shells                            ...    141
Maximum angular momentum                    ...      3
Integral batch strategy                     ... SHARK/LIBINT Hybrid
RI-J (if used) integral strategy            ... SPLIT-RIJ (Revised 2003 algorithm where possible)
Printlevel                                  ...      1
Contraction scheme used                     ... SEGMENTED contraction
Prescreening option                         ... SCHWARTZ
   Thresh                                   ... 1.000e-10
   Tcut                                     ... 1.000e-11
   Tpresel                                  ... 1.000e-11 
Coulomb Range Separation                    ... NOT USED
Exchange Range Separation                   ... NOT USED
Multipole approximations                    ... NOT USED
Finite Nucleus Model                        ... NOT USED
CABS basis                                  ... NOT available
Auxiliary Coulomb fitting basis             ... NOT available
Auxiliary J/K fitting basis                 ... NOT available
Auxiliary Correlation fitting basis         ... NOT available
Auxiliary 'external' fitting basis          ... NOT available

Checking pre-screening integrals            ... done (  0.1 sec) Dimension = 141
Check shell pair data                       ... done (  0.0 sec)
Shell pair information
Shell pair cut-off parameter TPreSel        ...   1.0e-11
Total number of shell pairs                 ...     10011
Shell pairs after pre-screening             ...      8175
Total number of primitive shell pairs       ...     37122
Primitive shell pairs kept                  ...     19936
          la=0 lb=0:   2407 shell pairs
          la=1 lb=0:   2932 shell pairs
          la=1 lb=1:    946 shell pairs
          la=2 lb=0:   1014 shell pairs
          la=2 lb=1:    632 shell pairs
          la=2 lb=2:    120 shell pairs
          la=3 lb=0:     69 shell pairs
          la=3 lb=1:     39 shell pairs
          la=3 lb=2:     15 shell pairs
          la=3 lb=3:      1 shell pairs

Calculating one electron integrals          ... done (  0.1 sec)
Calculating ECP integrals                   ... done (  0.4 sec)
Calculating Nuclear repulsion               ... done (  0.0 sec) ENN=   1536.889562238382 Eh

Diagonalization of the overlap matrix:
Smallest eigenvalue                        ... 2.352e-04
Time for diagonalization                   ...    0.106 sec
Threshold for overlap eigenvalues          ... 1.000e-07
Number of eigenvalues below threshold      ... 0
Time for construction of square roots      ...    0.007 sec
Total time needed                          ...    0.178 sec

-------------------
DFT GRID GENERATION
-------------------

General Integration Accuracy     IntAcc      ... 4.388
Radial Grid Type                 RadialGrid  ... OptM3 with GC (2021)
Angular Grid (max. ang.)         AngularGrid ... 4 (Lebedev-302)
Angular grid pruning method      GridPruning ... 4 (adaptive)
Weight generation scheme         WeightScheme... mBecke (2022)
Basis function cutoff            BFCut       ... 1.0000e-10
Integration weight cutoff        WCut        ... 1.0000e-14
Partially contracted basis set               ... off
Rotationally invariant grid construction     ... off
Angular grids for H and He will be reduced by one unit

Total number of grid points                  ...   140635
Total number of batches                      ...     2213
Average number of points per batch           ...       63
Average number of grid points per atom       ...     5023
Initializing property integral containers    ... done (  0.1 sec)

SHARK setup successfully completed in   2.7 seconds

Maximum memory used throughout the entire STARTUP-calculation: 39.2 MB


           ************************************************************
           *        Program running with 20 parallel MPI-processes    *
           *              working on a common directory               *
           ************************************************************
-------------------------------------------------------------------------------
                                 ORCA GUESS
                   Start orbitals & Density for SCF / CASSCF
-------------------------------------------------------------------------------

------------
SCF SETTINGS
------------
Hamiltonian:
 Ab initio Hamiltonian  Method          .... Hartree-Fock(GTOs)


General Settings:
 Integral files         IntName         .... cli48_Compound_1
 Hartree-Fock type      HFTyp           .... RHF
 Total Charge           Charge          ....    0
 Multiplicity           Mult            ....    1
 Number of Electrons    NEL             ....  144
 Basis Dimension        Dim             ....  309
 Nuclear Repulsion      ENuc            ....   1536.8895622384 Eh

Convergence Acceleration:
 AO-DIIS                CNVDIIS         .... on
   Start iteration      DIISMaxIt       ....    12
   Startup error        DIISStart       ....  0.200000
   # of expansion vecs  DIISMaxEq       ....     5
   Bias factor          DIISBfac        ....   1.050
   Max. coefficient     DIISMaxC        ....  10.000
 MO-DIIS                CNVKDIIS        .... off
 Trust-Rad. Augm. Hess. CNVTRAH         .... auto
   Auto Start mean grad. ratio tolernc. ....  1.125000
   Auto Start start iteration           ....    50
   Auto Start num. interpolation iter.  ....    10
   Max. Number of Micro iterations      ....    24
   Max. Number of Macro iterations      .... Maxiter - #DIIS iter
   Number of Davidson start vectors     ....     2
   Converg. threshold    (grad. norm)   ....   5.000e-05
   Grad. Scal. Fac. for Micro threshold ....   0.100
   Minimum threshold for Micro iter.    ....   1.000e-02
   NR start threshold (gradient norm)   ....   1.000e-04
   Initial trust radius                 ....   0.400
   Minimum AH scaling param. (alpha)    ....   1.000
   Maximum AH scaling param. (alpha)    .... 1000.000
   Quad. conv. algorithm                .... NR
   White noise on init. David. guess    .... on
   Maximum white noise                  ....   0.010
   Pseudo random numbers                .... off
   Inactive MOs                         .... canonical
   Orbital update algorithm             .... Taylor
   Preconditioner                       .... Diag
   Full preconditioner red. dimension   ....   250
 SOSCF                  CNVSOSCF        .... on
   Start iteration      SOSCFMaxIt      ....   150
   Startup grad/error   SOSCFStart      ....  0.003300
   Hessian update       SOSCFHessUp     .... L-BFGS
 Level Shifting         CNVShift        .... on
   Level shift para.    LevelShift      ....    0.2500
   Turn off err/grad.   ShiftErr        ....    0.0010
 Zerner damping         CNVZerner       .... off
 Static damping         CNVDamp         .... on
   Fraction old density DampFac         ....    0.7000
   Max. Damping (<1)    DampMax         ....    0.9800
   Min. Damping (>=0)   DampMin         ....    0.0000
   Turn off err/grad.   DampErr         ....    0.1000

SCF Procedure:
 Maximum # iterations   MaxIter         ....  1000
 SCF integral mode      SCFMode         .... Direct
   Integral package                     .... SHARK and LIBINT hybrid scheme
 Reset frequency        DirectResetFreq ....    20
 Integral Threshold     Thresh          ....  1.000e-10 Eh
 Primitive CutOff       TCut            ....  1.000e-11 Eh

Convergence Tolerance:
 Convergence Check Mode ConvCheckMode   .... Total+1el-Energy
 Convergence forced     ConvForced      .... 0
 Energy Change          TolE            ....  1.000e-06 Eh
 1-El. energy change                    ....  1.000e-03 Eh
 Orbital Gradient       TolG            ....  5.000e-05
 Orbital Rotation angle TolX            ....  5.000e-05
 DIIS Error             TolErr          ....  1.000e-06

------------------------------
INITIAL GUESS: MODEL POTENTIAL
------------------------------
Loading Hartree-Fock densities                     ... done
Atomic calculation to generate a density for atom 0 (Ru with ECP)
  Multiplicity assumed   :    5
  Atomic configuration   : 1s2 2s2 2p6 3s2 3p6 4s2 3d10 4p6 5s2 4d6 
  Number of open shells  : 1
  Command: /cluster/projects/nn2506k/marcof/tools/orca_6_0_1/orca cli48_Compound_1_atom44.inp "--bind-to none" > cli48_Compound_1_atom44.out
Returned from the atomic calculation with res=0
Calculating cut-offs                               ... done
Initializing the effective Hamiltonian             ... done
Setting up the integral package (SHARK)            ... done
Starting the Coulomb interaction                   ... done (   0.3 sec)
Making the grid                                    ... done (   0.3 sec)
Mapping shells                                     ... done
Starting the XC term evaluation                    ... done (   0.1 sec)
Transforming the Hamiltonian                       ... done (   0.0 sec)
Diagonalizing the Hamiltonian                      ... done (   0.1 sec)
Back transforming the eigenvectors                 ... done (   0.0 sec)
Now organizing SCF variables                       ... done
                      ------------------
                      INITIAL GUESS DONE (   7.4 sec)
                      ------------------
             **** ENERGY FILE WAS UPDATED (cli48_Compound_1.en.tmp) ****
Finished Guess after   9.0 sec
Maximum memory used throughout the entire GUESS-calculation: 22.4 MB


           ************************************************************
           *        Program running with 20 parallel MPI-processes    *
           *              working on a common directory               *
           ************************************************************

-------------------------------------------------------------------------------------------
                                      ORCA LEAN-SCF
                              memory conserving SCF solver
-------------------------------------------------------------------------------------------

----------------------------------------D-I-I-S--------------------------------------------
Iteration    Energy (Eh)           Delta-E    RMSDP     MaxDP     DIISErr   Damp  Time(sec)
-------------------------------------------------------------------------------------------
               ***  Starting incremental Fock matrix formation  ***
    1    -1584.8878073701703215     0.00e+00  3.42e-03  1.47e-01  3.85e-01  0.700   2.4
    2    -1585.1920471166085918    -3.04e-01  2.46e-03  8.48e-02  3.06e-01  0.700   2.0
    3    -1585.3353421592701125    -1.43e-01  1.69e-03  7.36e-02  2.35e-01  0.700   1.8
                               ***Turning on AO-DIIS***
    4    -1585.4309033995596110    -9.56e-02  1.30e-03  6.83e-02  1.71e-01  0.700   1.9
    5    -1585.5014904205750099    -7.06e-02  9.73e-04  4.41e-02  1.18e-01  0.700   1.8
    6    -1585.5525652044989329    -5.11e-02  7.49e-04  3.16e-02  8.28e-02  0.700   1.9
    7    -1585.5899249986418909    -3.74e-02  1.95e-03  7.93e-02  5.86e-02  0.000   1.8
    8    -1585.6882365705228040    -9.83e-02  3.48e-04  1.88e-02  1.22e-02  0.000   1.9
    9    -1585.6908418932807763    -2.61e-03  2.75e-04  1.76e-02  1.33e-02  0.000   1.7
   10    -1585.6925371410293337    -1.70e-03  3.57e-04  1.96e-02  9.29e-03  0.000   1.7
   11    -1585.6941624447499635    -1.63e-03  2.87e-04  1.68e-02  7.71e-03  0.000   1.7
   12    -1585.6950744083169411    -9.12e-04  2.00e-04  1.07e-02  4.81e-03  0.000   1.7
                              *** Initializing SOSCF ***
---------------------------------------S-O-S-C-F--------------------------------------
Iteration    Energy (Eh)           Delta-E    RMSDP     MaxDP     MaxGrad    Time(sec)
--------------------------------------------------------------------------------------
   13    -1585.6954783967948970    -4.04e-04  1.44e-04  7.34e-03  2.91e-03     1.7
               *** Restarting incremental Fock matrix formation ***
   14    -1585.6956512512633708    -1.73e-04  6.36e-05  3.15e-03  2.20e-03     1.9
   15    -1585.6956943790933110    -4.31e-05  1.08e-04  4.03e-03  6.67e-04     1.5
   16    -1585.6957272811559960    -3.29e-05  2.97e-05  1.40e-03  4.00e-04     1.5
   17    -1585.6957359509042362    -8.67e-06  2.10e-05  1.29e-03  1.57e-04     1.4
   18    -1585.6957389600984243    -3.01e-06  7.04e-06  3.22e-04  6.49e-05     1.4
   19    -1585.6957392468102626    -2.87e-07  3.25e-06  1.22e-04  2.87e-05     1.3
                 **** Energy Check signals convergence ****

               *****************************************************
               *                     SUCCESS                       *
               *           SCF CONVERGED AFTER  19 CYCLES          *
               *****************************************************

             **** ENERGY FILE WAS UPDATED (cli48_Compound_1.en.tmp) ****

----------------
TOTAL SCF ENERGY
----------------

Total Energy       :      -1585.69573924681026 Eh          -43148.97472 eV

Components:
Nuclear Repulsion  :       1536.88956223838204 Eh           41820.89112 eV
Electronic Energy  :      -3122.58530148519230 Eh          -84969.86584 eV
One Electron Energy:      -5274.82836976072213 Eh         -143535.37714 eV
Two Electron Energy:       2152.24306827552982 Eh           58565.51130 eV

Virial components:
Potential Energy   :      -3108.93009258996244 Eh          -84598.28871 eV
Kinetic Energy     :       1523.23435334315218 Eh           41449.31400 eV
Virial Ratio       :          2.04100576235467

---------------
SCF CONVERGENCE
---------------

  Last Energy change         ...    2.8671e-07  Tolerance :   1.0000e-06
  Last MAX-Density change    ...    1.2227e-04  Tolerance :   1.0000e-05
  Last RMS-Density change    ...    3.2546e-06  Tolerance :   1.0000e-06
  Last DIIS Error            ...    2.9075e-03  Tolerance :   1.0000e-06
  Last Orbital Gradient      ...    2.8689e-05  Tolerance :   5.0000e-05
  Last Orbital Rotation      ...    7.5099e-05  Tolerance :   5.0000e-05


----------------
ORBITAL ENERGIES
----------------

  NO   OCC          E(Eh)            E(eV) 
   0   2.0000    -104.704728     -2849.1605 
   1   2.0000    -104.700430     -2849.0436 
   2   2.0000     -20.682942      -562.8115 
   3   2.0000     -20.642240      -561.7039 
   4   2.0000     -11.408156      -310.4317 
   5   2.0000     -11.362216      -309.1816 
   6   2.0000     -11.320402      -308.0438 
   7   2.0000     -11.310817      -307.7830 
   8   2.0000     -11.293936      -307.3236 
   9   2.0000     -11.291747      -307.2641 
  10   2.0000     -11.271738      -306.7196 
  11   2.0000     -11.271386      -306.7100 
  12   2.0000     -11.263903      -306.5064 
  13   2.0000     -11.233480      -305.6785 
  14   2.0000     -11.230381      -305.5942 
  15   2.0000     -10.466551      -284.8093 
  16   2.0000     -10.462304      -284.6938 
  17   2.0000      -7.941028      -216.0864 
  18   2.0000      -7.939322      -216.0399 
  19   2.0000      -7.939205      -216.0368 
  20   2.0000      -7.936803      -215.9714 
  21   2.0000      -7.935076      -215.9244 
  22   2.0000      -7.934920      -215.9201 
  23   2.0000      -3.575065       -97.2825 
  24   2.0000      -2.268843       -61.7384 
  25   2.0000      -2.261322       -61.5337 
  26   2.0000      -2.258101       -61.4460 
  27   2.0000      -1.521764       -41.4093 
  28   2.0000      -1.460547       -39.7435 
  29   2.0000      -1.192727       -32.4557 
  30   2.0000      -1.098497       -29.8916 
  31   2.0000      -1.076652       -29.2972 
  32   2.0000      -1.033103       -28.1122 
  33   2.0000      -0.993413       -27.0321 
  34   2.0000      -0.982307       -26.7299 
  35   2.0000      -0.949453       -25.8359 
  36   2.0000      -0.937269       -25.5044 
  37   2.0000      -0.895206       -24.3598 
  38   2.0000      -0.830037       -22.5865 
  39   2.0000      -0.817425       -22.2433 
  40   2.0000      -0.814483       -22.1632 
  41   2.0000      -0.763228       -20.7685 
  42   2.0000      -0.721135       -19.6231 
  43   2.0000      -0.703268       -19.1369 
  44   2.0000      -0.684322       -18.6213 
  45   2.0000      -0.666183       -18.1278 
  46   2.0000      -0.663939       -18.0667 
  47   2.0000      -0.662004       -18.0140 
  48   2.0000      -0.655389       -17.8340 
  49   2.0000      -0.630732       -17.1631 
  50   2.0000      -0.628706       -17.1080 
  51   2.0000      -0.608898       -16.5690 
  52   2.0000      -0.580856       -15.8059 
  53   2.0000      -0.570484       -15.5237 
  54   2.0000      -0.565964       -15.4007 
  55   2.0000      -0.553906       -15.0726 
  56   2.0000      -0.537069       -14.6144 
  57   2.0000      -0.532495       -14.4899 
  58   2.0000      -0.508332       -13.8324 
  59   2.0000      -0.502433       -13.6719 
  60   2.0000      -0.499193       -13.5837 
  61   2.0000      -0.479690       -13.0530 
  62   2.0000      -0.462689       -12.5904 
  63   2.0000      -0.458658       -12.4807 
  64   2.0000      -0.417952       -11.3731 
  65   2.0000      -0.411752       -11.2043 
  66   2.0000      -0.396166       -10.7802 
  67   2.0000      -0.386125       -10.5070 
  68   2.0000      -0.385326       -10.4853 
  69   2.0000      -0.361211        -9.8290 
  70   2.0000      -0.342021        -9.3069 
  71   2.0000      -0.321065        -8.7366 
  72   0.0000       0.008793         0.2393 
  73   0.0000       0.079375         2.1599 
  74   0.0000       0.109696         2.9850 
  75   0.0000       0.125505         3.4152 
  76   0.0000       0.131569         3.5802 
  77   0.0000       0.153210         4.1691 
  78   0.0000       0.156682         4.2635 
  79   0.0000       0.160911         4.3786 
  80   0.0000       0.174983         4.7615 
  81   0.0000       0.178986         4.8705 
  82   0.0000       0.187686         5.1072 
*Only the first 10 virtual orbitals were printed.

                    ********************************
                    * MULLIKEN POPULATION ANALYSIS *
                    ********************************

-----------------------
MULLIKEN ATOMIC CHARGES
-----------------------
   0 Ru:    0.262814
   1 O :   -0.667520
   2 C :    0.133322
   3 H :    0.061691
   4 C :    0.099877
   5 H :    0.051554
   6 C :   -0.012127
   7 H :    0.032203
   8 H :    0.037784
   9 H :    0.075851
  10 C :   -0.035796
  11 H :    0.053868
  12 H :    0.042956
  13 H :    0.080739
  14 C :    0.524294
  15 C :   -0.162839
  16 H :    0.052520
  17 C :    0.068816
  18 H :    0.061685
  19 C :   -0.080314
  20 H :    0.050073
  21 C :    0.090465
  22 H :    0.050160
  23 C :   -0.255633
  24 Cl:   -0.440022
  25 Cl:   -0.450427
  26 C :    0.407510
  27 O :   -0.133505
Sum of atomic charges:    0.0000000

--------------------------------
MULLIKEN REDUCED ORBITAL CHARGES
--------------------------------
  0 Rus       :     2.308935  s :     2.308935
      pz      :     2.189168  p :     6.583150
      px      :     2.219844
      py      :     2.174138
      dz2     :     1.120910  d :     6.831021
      dxz     :     1.631891
      dyz     :     1.412916
      dx2y2   :     1.490539
      dxy     :     1.174765
      f0      :     0.002529  f :     0.014080
      f+1     :     0.001571
      f-1     :     0.002164
      f+2     :     0.001220
      f-2     :     0.001804
      f+3     :     0.002743
      f-3     :     0.002048

  1 O s       :     3.802773  s :     3.802773
      pz      :     1.830316  p :     4.848047
      px      :     1.628544
      py      :     1.389188
      dz2     :     0.001941  d :     0.016700
      dxz     :     0.002191
      dyz     :     0.002431
      dx2y2   :     0.003431
      dxy     :     0.006705

  2 C s       :     3.246075  s :     3.246075
      pz      :     0.565845  p :     2.576685
      px      :     0.976046
      py      :     1.034794
      dz2     :     0.003900  d :     0.043918
      dxz     :     0.008558
      dyz     :     0.006092
      dx2y2   :     0.018369
      dxy     :     0.006999

  3 H s       :     0.912880  s :     0.912880
      pz      :     0.004301  p :     0.025429
      px      :     0.005787
      py      :     0.015341

  4 C s       :     3.116533  s :     3.116533
      pz      :     1.004835  p :     2.704226
      px      :     1.056707
      py      :     0.642684
      dz2     :     0.012284  d :     0.079364
      dxz     :     0.016311
      dyz     :     0.016598
      dx2y2   :     0.022079
      dxy     :     0.012092

  5 H s       :     0.926028  s :     0.926028
      pz      :     0.012360  p :     0.022418
      px      :     0.008732
      py      :     0.001326

  6 C s       :     3.032989  s :     3.032989
      pz      :     0.976819  p :     2.943135
      px      :     1.010068
      py      :     0.956248
      dz2     :     0.005250  d :     0.036002
      dxz     :     0.010502
      dyz     :     0.007524
      dx2y2   :     0.007466
      dxy     :     0.005261

  7 H s       :     0.941799  s :     0.941799
      pz      :     0.005550  p :     0.025997
      px      :     0.014064
      py      :     0.006383

  8 H s       :     0.936252  s :     0.936252
      pz      :     0.004627  p :     0.025964
      px      :     0.004664
      py      :     0.016673

  9 H s       :     0.896813  s :     0.896813
      pz      :     0.012470  p :     0.027336
      px      :     0.011132
      py      :     0.003733

 10 C s       :     3.046841  s :     3.046841
      pz      :     1.033745  p :     2.952865
      px      :     0.915628
      py      :     1.003492
      dz2     :     0.006672  d :     0.036089
      dxz     :     0.010456
      dyz     :     0.004470
      dx2y2   :     0.009773
      dxy     :     0.004719

 11 H s       :     0.920240  s :     0.920240
      pz      :     0.011622  p :     0.025892
      px      :     0.009950
      py      :     0.004320

 12 H s       :     0.931147  s :     0.931147
      pz      :     0.004448  p :     0.025896
      px      :     0.003533
      py      :     0.017915

 13 H s       :     0.892701  s :     0.892701
      pz      :     0.014552  p :     0.026561
      px      :     0.004657
      py      :     0.007352

 14 C s       :     2.970713  s :     2.970713
      pz      :     0.836676  p :     2.417748
      px      :     0.762671
      py      :     0.818401
      dz2     :     0.008762  d :     0.087245
      dxz     :     0.016143
      dyz     :     0.012408
      dx2y2   :     0.021789
      dxy     :     0.028142

 15 C s       :     3.190316  s :     3.190316
      pz      :     1.067849  p :     2.931290
      px      :     0.931807
      py      :     0.931634
      dz2     :     0.004009  d :     0.041234
      dxz     :     0.006375
      dyz     :     0.004804
      dx2y2   :     0.014492
      dxy     :     0.011554

 16 H s       :     0.920750  s :     0.920750
      pz      :     0.006719  p :     0.026730
      px      :     0.004999
      py      :     0.015013

 17 C s       :     3.109073  s :     3.109073
      pz      :     0.875841  p :     2.775089
      px      :     0.949415
      py      :     0.949833
      dz2     :     0.005158  d :     0.047023
      dxz     :     0.005191
      dyz     :     0.008787
      dx2y2   :     0.014486
      dxy     :     0.013401

 18 H s       :     0.912427  s :     0.912427
      pz      :     0.003968  p :     0.025889
      px      :     0.019074
      py      :     0.002847

 19 C s       :     3.130977  s :     3.130977
      pz      :     1.038299  p :     2.906387
      px      :     0.931071
      py      :     0.937017
      dz2     :     0.004141  d :     0.042950
      dxz     :     0.006262
      dyz     :     0.005249
      dx2y2   :     0.013561
      dxy     :     0.013736

 20 H s       :     0.923641  s :     0.923641
      pz      :     0.004581  p :     0.026286
      px      :     0.009404
      py      :     0.012302

 21 C s       :     3.144005  s :     3.144005
      pz      :     0.870511  p :     2.719467
      px      :     0.924909
      py      :     0.924047
      dz2     :     0.003962  d :     0.046063
      dxz     :     0.009746
      dyz     :     0.004863
      dx2y2   :     0.012991
      dxy     :     0.014502

 22 H s       :     0.923745  s :     0.923745
      pz      :     0.005700  p :     0.026095
      px      :     0.004640
      py      :     0.015756

 23 C s       :     3.055680  s :     3.055680
      pz      :     1.127460  p :     3.151102
      px      :     0.984480
      py      :     1.039162
      dz2     :     0.004705  d :     0.048852
      dxz     :     0.004999
      dyz     :     0.007062
      dx2y2   :     0.015716
      dxy     :     0.016370

 24 Cls       :     5.943626  s :     5.943626
      pz      :     3.646273  p :    11.482700
      px      :     3.927414
      py      :     3.909012
      dz2     :     0.006155  d :     0.013696
      dxz     :     0.003337
      dyz     :     0.003662
      dx2y2   :     0.000270
      dxy     :     0.000273

 25 Cls       :     5.943772  s :     5.943772
      pz      :     3.768276  p :    11.493199
      px      :     3.925809
      py      :     3.799115
      dz2     :     0.004544  d :     0.013457
      dxz     :     0.002363
      dyz     :     0.004288
      dx2y2   :     0.001089
      dxy     :     0.001173

 26 C s       :     3.412427  s :     3.412427
      pz      :     0.589528  p :     2.086486
      px      :     0.927184
      py      :     0.569774
      dz2     :     0.012838  d :     0.093577
      dxz     :     0.026625
      dyz     :     0.005689
      dx2y2   :     0.021242
      dxy     :     0.027183

 27 O s       :     3.748096  s :     3.748096
      pz      :     1.486150  p :     4.358718
      px      :     1.392007
      py      :     1.480562
      dz2     :     0.003550  d :     0.026690
      dxz     :     0.007472
      dyz     :     0.001407
      dx2y2   :     0.007077
      dxy     :     0.007185



                     *******************************
                     * LOEWDIN POPULATION ANALYSIS *
                     *******************************

----------------------
LOEWDIN ATOMIC CHARGES
----------------------
   0 Ru:   -0.862164
   1 O :   -0.062156
   2 C :    0.248758
   3 H :    0.043620
   4 C :    0.130740
   5 H :    0.015584
   6 C :   -0.035504
   7 H :    0.015694
   8 H :    0.022870
   9 H :    0.030402
  10 C :   -0.018108
  11 H :    0.038984
  12 H :    0.025934
  13 H :    0.032997
  14 C :    0.196611
  15 C :   -0.081467
  16 H :    0.034481
  17 C :    0.064346
  18 H :    0.039252
  19 C :   -0.064484
  20 H :    0.031870
  21 C :    0.069040
  22 H :    0.038119
  23 C :   -0.107741
  24 Cl:   -0.124675
  25 Cl:   -0.125514
  26 C :    0.389301
  27 O :    0.013208

-------------------------------
LOEWDIN REDUCED ORBITAL CHARGES
-------------------------------
  0 Rus       :     2.410612  s :     2.410612
      pz      :     2.438519  p :     7.098629
      px      :     2.350968
      py      :     2.309142
      dz2     :     1.266659  d :     7.332009
      dxz     :     1.717706
      dyz     :     1.501566
      dx2y2   :     1.559575
      dxy     :     1.286503
      f0      :     0.003746  f :     0.020915
      f+1     :     0.002324
      f-1     :     0.003122
      f+2     :     0.001877
      f-2     :     0.002556
      f+3     :     0.003995
      f-3     :     0.003294

  1 O s       :     3.370978  s :     3.370978
      pz      :     1.769267  p :     4.660697
      px      :     1.544610
      py      :     1.346820
      dz2     :     0.003177  d :     0.030481
      dxz     :     0.003121
      dyz     :     0.004636
      dx2y2   :     0.007519
      dxy     :     0.012029

  2 C s       :     2.928599  s :     2.928599
      pz      :     0.586731  p :     2.728689
      px      :     1.084391
      py      :     1.057567
      dz2     :     0.007026  d :     0.093953
      dxz     :     0.017136
      dyz     :     0.012256
      dx2y2   :     0.039711
      dxy     :     0.017825

  3 H s       :     0.887982  s :     0.887982
      pz      :     0.011493  p :     0.068398
      px      :     0.017490
      py      :     0.039415

  4 C s       :     2.837819  s :     2.837819
      pz      :     1.036336  p :     2.865132
      px      :     1.064823
      py      :     0.763974
      dz2     :     0.024362  d :     0.166308
      dxz     :     0.034297
      dyz     :     0.035818
      dx2y2   :     0.045637
      dxy     :     0.026194

  5 H s       :     0.918738  s :     0.918738
      pz      :     0.032870  p :     0.065677
      px      :     0.025844
      py      :     0.006963

  6 C s       :     2.830298  s :     2.830298
      pz      :     1.036044  p :     3.123470
      px      :     1.054283
      py      :     1.033143
      dz2     :     0.011840  d :     0.081736
      dxz     :     0.023972
      dyz     :     0.017088
      dx2y2   :     0.017013
      dxy     :     0.011823

  7 H s       :     0.916503  s :     0.916503
      pz      :     0.016921  p :     0.067803
      px      :     0.033569
      py      :     0.017314

  8 H s       :     0.909855  s :     0.909855
      pz      :     0.014380  p :     0.067275
      px      :     0.014101
      py      :     0.038793

  9 H s       :     0.896677  s :     0.896677
      pz      :     0.032639  p :     0.072921
      px      :     0.028226
      py      :     0.012055

 10 C s       :     2.829386  s :     2.829386
      pz      :     1.058659  p :     3.107648
      px      :     0.998200
      py      :     1.050788
      dz2     :     0.014709  d :     0.081075
      dxz     :     0.023491
      dyz     :     0.009669
      dx2y2   :     0.022570
      dxy     :     0.010635

 11 H s       :     0.893032  s :     0.893032
      pz      :     0.028409  p :     0.067985
      px      :     0.026756
      py      :     0.012820

 12 H s       :     0.906754  s :     0.906754
      pz      :     0.013684  p :     0.067312
      px      :     0.012089
      py      :     0.041539

 13 H s       :     0.895892  s :     0.895892
      pz      :     0.036307  p :     0.071111
      px      :     0.015219
      py      :     0.019584

 14 C s       :     2.819024  s :     2.819024
      pz      :     0.868653  p :     2.796818
      px      :     0.997782
      py      :     0.930383
      dz2     :     0.017470  d :     0.187547
      dxz     :     0.031716
      dyz     :     0.025107
      dx2y2   :     0.050613
      dxy     :     0.062641

 15 C s       :     2.839104  s :     2.839104
      pz      :     1.055628  p :     3.147018
      px      :     1.038262
      py      :     1.053128
      dz2     :     0.007655  d :     0.095344
      dxz     :     0.013182
      dyz     :     0.009418
      dx2y2   :     0.035741
      dxy     :     0.029347

 16 H s       :     0.892517  s :     0.892517
      pz      :     0.020855  p :     0.073002
      px      :     0.015478
      py      :     0.036669

 17 C s       :     2.850708  s :     2.850708
      pz      :     0.884582  p :     2.981327
      px      :     1.046198
      py      :     1.050548
      dz2     :     0.009835  d :     0.103618
      dxz     :     0.009736
      dyz     :     0.018057
      dx2y2   :     0.034934
      dxy     :     0.031056

 18 H s       :     0.891930  s :     0.891930
      pz      :     0.012952  p :     0.068818
      px      :     0.044621
      py      :     0.011245

 19 C s       :     2.840264  s :     2.840264
      pz      :     1.030864  p :     3.125373
      px      :     1.051807
      py      :     1.042701
      dz2     :     0.008275  d :     0.098848
      dxz     :     0.012872
      dyz     :     0.010516
      dx2y2   :     0.032401
      dxy     :     0.034785

 20 H s       :     0.897261  s :     0.897261
      pz      :     0.015950  p :     0.070869
      px      :     0.024333
      py      :     0.030586

 21 C s       :     2.850999  s :     2.850999
      pz      :     0.886241  p :     2.977200
      px      :     1.064426
      py      :     1.026533
      dz2     :     0.007305  d :     0.102761
      dxz     :     0.019521
      dyz     :     0.009804
      dx2y2   :     0.031533
      dxy     :     0.034598

 22 H s       :     0.892752  s :     0.892752
      pz      :     0.016491  p :     0.069129
      px      :     0.014672
      py      :     0.037966

 23 C s       :     2.824220  s :     2.824220
      pz      :     1.070173  p :     3.169526
      px      :     1.051220
      py      :     1.048134
      dz2     :     0.009666  d :     0.113995
      dxz     :     0.010650
      dyz     :     0.014951
      dx2y2   :     0.038665
      dxy     :     0.040062

 24 Cls       :     5.741813  s :     5.741813
      pz      :     3.601596  p :    11.368264
      px      :     3.893112
      py      :     3.873555
      dz2     :     0.005929  d :     0.014598
      dxz     :     0.003904
      dyz     :     0.004224
      dx2y2   :     0.000268
      dxy     :     0.000272

 25 Cls       :     5.743486  s :     5.743486
      pz      :     3.718575  p :    11.367770
      px      :     3.885992
      py      :     3.763203
      dz2     :     0.005034  d :     0.014258
      dxz     :     0.002703
      dyz     :     0.003954
      dx2y2   :     0.001130
      dxy     :     0.001436

 26 C s       :     3.121538  s :     3.121538
      pz      :     0.632227  p :     2.314233
      px      :     1.073796
      py      :     0.608210
      dz2     :     0.023497  d :     0.174928
      dxz     :     0.049408
      dyz     :     0.010079
      dx2y2   :     0.042778
      dxy     :     0.049168

 27 O s       :     3.510634  s :     3.510634
      pz      :     1.465361  p :     4.439773
      px      :     1.523349
      py      :     1.451064
      dz2     :     0.004626  d :     0.036385
      dxz     :     0.010092
      dyz     :     0.001616
      dx2y2   :     0.011327
      dxy     :     0.008724



                      *****************************
                      * MAYER POPULATION ANALYSIS *
                      *****************************

  NA   - Mulliken gross atomic population
  ZA   - Total nuclear charge
  QA   - Mulliken gross atomic charge
  VA   - Mayer's total valence
  BVA  - Mayer's bonded valence
  FA   - Mayer's free valence

  ATOM       NA         ZA         QA         VA         BVA        FA
  0 Ru    15.7372    16.0000     0.2628     3.9664     3.9664     0.0000
  1 O      8.6675     8.0000    -0.6675     1.7799     1.7799     0.0000
  2 C      5.8667     6.0000     0.1333     3.5510     3.5510    -0.0000
  3 H      0.9383     1.0000     0.0617     0.9839     0.9839     0.0000
  4 C      5.9001     6.0000     0.0999     3.7943     3.7943    -0.0000
  5 H      0.9484     1.0000     0.0516     0.9666     0.9666     0.0000
  6 C      6.0121     6.0000    -0.0121     3.8904     3.8904    -0.0000
  7 H      0.9678     1.0000     0.0322     0.9914     0.9914    -0.0000
  8 H      0.9622     1.0000     0.0378     0.9839     0.9839    -0.0000
  9 H      0.9241     1.0000     0.0759     1.0328     1.0328    -0.0000
 10 C      6.0358     6.0000    -0.0358     3.8975     3.8975     0.0000
 11 H      0.9461     1.0000     0.0539     1.0128     1.0128    -0.0000
 12 H      0.9570     1.0000     0.0430     0.9875     0.9875    -0.0000
 13 H      0.9193     1.0000     0.0807     1.0129     1.0129    -0.0000
 14 C      5.4757     6.0000     0.5243     3.6552     3.6552    -0.0000
 15 C      6.1628     6.0000    -0.1628     3.9055     3.9055    -0.0000
 16 H      0.9475     1.0000     0.0525     0.9926     0.9926     0.0000
 17 C      5.9312     6.0000     0.0688     3.8423     3.8423     0.0000
 18 H      0.9383     1.0000     0.0617     0.9855     0.9855     0.0000
 19 C      6.0803     6.0000    -0.0803     3.8684     3.8684     0.0000
 20 H      0.9499     1.0000     0.0501     0.9880     0.9880     0.0000
 21 C      5.9095     6.0000     0.0905     3.8838     3.8838     0.0000
 22 H      0.9498     1.0000     0.0502     0.9954     0.9954    -0.0000
 23 C      6.2556     6.0000    -0.2556     3.8669     3.8669    -0.0000
 24 Cl    17.4400    17.0000    -0.4400     0.9630     0.9630     0.0000
 25 Cl    17.4504    17.0000    -0.4504     0.9444     0.9444     0.0000
 26 C      5.5925     6.0000     0.4075     3.3117     3.3117    -0.0000
 27 O      8.1335     8.0000    -0.1335     2.4757     2.4757     0.0000

  Mayer bond orders larger than 0.100000
B(  0-Ru,  1-O ) :   0.1565 B(  0-Ru,  2-C ) :   1.2735 B(  0-Ru, 24-Cl) :   0.8376 
B(  0-Ru, 25-Cl) :   0.7615 B(  0-Ru, 26-C ) :   0.8245 B(  1-O ,  4-C ) :   0.7007 
B(  1-O , 14-C ) :   0.8692 B(  2-C ,  3-H ) :   0.9689 B(  2-C , 23-C ) :   1.1814 
B(  4-C ,  5-H ) :   0.9730 B(  4-C ,  6-C ) :   1.0341 B(  4-C , 10-C ) :   1.0345 
B(  6-C ,  7-H ) :   0.9811 B(  6-C ,  8-H ) :   0.9789 B(  6-C ,  9-H ) :   0.9618 
B( 10-C , 11-H ) :   0.9650 B( 10-C , 12-H ) :   0.9795 B( 10-C , 13-H ) :   0.9750 
B( 14-C , 15-C ) :   1.4077 B( 14-C , 23-C ) :   1.2907 B( 15-C , 16-H ) :   1.0058 
B( 15-C , 17-C ) :   1.3960 B( 17-C , 18-H ) :   0.9962 B( 17-C , 19-C ) :   1.3769 
B( 19-C , 20-H ) :   1.0032 B( 19-C , 21-C ) :   1.4589 B( 21-C , 22-H ) :   1.0026 
B( 21-C , 23-C ) :   1.3275 B( 26-C , 27-O ) :   2.4225 

-------
TIMINGS
-------

Total SCF time: 0 days 0 hours 0 min 35 sec 

Total time                  ....      35.131 sec
Sum of individual times     ....      34.551 sec  ( 98.3%)

SCF preparation             ....       1.469 sec  (  4.2%)
Fock matrix formation       ....      28.095 sec  ( 80.0%)
  Startup                   ....       0.596 sec  (  2.1% of F)
  Coulomb+Exchange Fock     ....      27.311 sec  ( 97.2% of F)
Diagonalization             ....       0.000 sec  (  0.0%)
Density matrix formation    ....       1.308 sec  (  3.7%)
Total Energy calculation    ....       0.565 sec  (  1.6%)
Population analysis         ....       0.150 sec  (  0.4%)
Orbital Transformation      ....       0.142 sec  (  0.4%)
Orbital Orthonormalization  ....       0.000 sec  (  0.0%)
DIIS solution               ....       2.319 sec  (  6.6%)
SOSCF solution              ....       0.503 sec  (  1.4%)
Finished LeanSCF after  35.2 sec

Maximum memory used throughout the entire LEANSCF-calculation: 22.8 MB

-------------------------   --------------------
FINAL SINGLE POINT ENERGY     -1585.695739246810
-------------------------   --------------------



           ************************************************************
           *        Program running with 20 parallel MPI-processes    *
           *              working on a common directory               *
           ************************************************************

------------------------------------------------------------------------------
                              ORCA PROPERTY CALCULATIONS
------------------------------------------------------------------------------

GBWName                                 ... cli48_Compound_1.gbw
Number of atoms                         ...     28
Number of basis functions               ...    309
Max core memory                         ...   1400 MB

Electric properties:
Dipole moment                           ... YES
Quadrupole moment                       ...  NO
Static polarizability (Dipole/Dipole)   ...  NO
Static polarizability (Dipole/Quad.)    ...  NO
Static polarizability (Quad./Quad.)     ...  NO
Static polarizability (Velocity)        ...  NO

Atomic electric properties:
Dipole moment                           ...  NO
Quadrupole moment                       ...  NO
Static polarizability                   ...  NO

Choice of electric origin               ... Center of mass
Position of electric origin             ...     0.121790    -0.115063    -0.275010

General magnetic properties:
Magnetizability                         ...  NO

EPR properties:
g-Tensor (aka g-matrix)                 ...  NO
Zero-Field splitting spin-orbit         ...  NO
Zero-field splitting spin-spin          ...  NO
Hyperfine couplings                     ...  NO (   0 nuclei)
Quadrupole couplings                    ...  NO (   0 nuclei)
Contact density                         ...  NO (   0 nuclei)

NMR properties:
Chemical shifts                         ...  NO (   0 nuclei)
Spin-rotation constants                 ...  NO (   0 nuclei)
Spin-spin couplings                     ...  NO (   0 nuclei,    0 pairs)

Choice of magnetic origin               ... GIAO
Position of magnetic origin             ...     0.000000     0.000000     0.000000

Properties with geometric perturbations:
SCF Hessian                             ...  NO
IR spectrum                             ...  NO
VCD spectrum                            ...  NO
X-ray spectroscopy properties:
SCF XES/XAS/RIXS spectra                ...  NO


-------------
DIPOLE MOMENT
-------------

Method             : SCF
Type of density    : Electron Density
Multiplicity       :   1
Irrep              :   0
Energy             : -1585.6957392468102626 Eh
Relativity type    : 
Basis              : AO
                                X                 Y                 Z
Electronic contribution:    -87.892716138      13.502393932       9.078237317
Nuclear contribution   :     90.414332756     -12.955754107      -9.109398546
                        -----------------------------------------
Total Dipole Moment    :      2.521616618       0.546639826      -0.031161230
                        -----------------------------------------
Magnitude (a.u.)       :      2.580375262
Magnitude (Debye)      :      6.558792679



--------------------
Rotational spectrum 
--------------------
 
Rotational constants in cm-1:             0.016735             0.009731             0.008633 
Rotational constants in MHz :           501.689479           291.729430           258.797125 

Dipole components along the rotational axes: 
x,y,z [a.u.] :     2.556892     0.301683    -0.172128 
x,y,z [Debye]:     6.499102     0.766818    -0.437515 

 

Dipole moment calculation done in   0.2 sec 

Maximum memory used throughout the entire PROP-calculation: 15.3 MB

Timings for individual modules:

Sum of individual times          ...       55.601 sec (=   0.927 min)
Startup calculation              ...        7.287 sec (=   0.121 min)  13.1 %
SCF iterations                   ...       46.104 sec (=   0.768 min)  82.9 %
Property calculations            ...        2.211 sec (=   0.037 min)   4.0 %


################################################################################


                                COMPOUND JOB  2 
Basename: cli48_Compound_2
NOTE: please remember that MaxCore and PAL settings will be ignored.

################################################################################

================================================================================
                                       INPUT FILE
================================================================================
NAME = cli48_Compound_2.inp
|  1>     ! RKS r2scan-3c Opt
|  2>     %geom
|  3>       maxiter 5
|  4>     end
|  5>     %scf
|  6>       maxiter 500
|  7>     end
|  8> 
|  9>                          ****END OF INPUT****
================================================================================
Your calculation utilizes the geometrical counterpoise correction gCP
Please cite in your paper:
H.Kruse, S. Grimme J.Chem.Phys., 136, (2012), 154101 
   

Your calculation utilizes the atom-pairwise dispersion correction
based on EEQ partial charges (D4)


================================================================================

cite the ECPs for Ru [Def2-ECP] as follows:
Ce-Yb(ecp-28): M. Dolg, H. Stoll, H.Preuss, J. Chem. Phys., 1989, 90, 1730-1734.
Y-Cd(ecp-28), Hf-Hg(ecp-46): D. Andrae,U. Haeussermann, M. Dolg, H. Stoll, H. Preuss, Theor. Chim. Acta, 1990, 77, 123-141.
In-Sb(ecp-28), Tl-Bi(ecp-46): B. Metz, H. Stoll, M. Dolg, J. Chem. Phys., 2000, 113, 2563-2569.
Te-Xe(ecp-28), Po-Rn(ecp-46): K. A. Peterson, D. Figgen, E. Goll, H. Stoll, M. Dolg, J. Chem. Phys., 2003, 119, 11113-11123.
Rb(ecp-28), Cs(ecp-46): T. Leininger, A. Nicklass, W. Kuechle, H. Stoll, M. Dolg, A. Bergner, Chem. Phys. Lett., 1996, 255, 274-280.
Sr(ecp-28), Ba(ecp-46): M. Kaupp, P. V. Schleyer, H. Stoll and H. Preuss, J. Chem. Phys., 1991, 94, 1360-1366.
La(ecp-46): M. Dolg, H. Stoll, A. Savin, H. Preuss, Theor. Chim. Acta, 1989, 75, 173-194.
Lu(ecp-28): X. Cao, M. Dolg, J. Chem. Phys., 2001, 115, 7348-7355.
Fr-Lr(ecp-60) K. Eichkorn, F. Weigend, O. Treutler, R. Ahlrichs, Theor. Chem. Acc. 1997, 97, 119.

ECP parameters for Ru [Def2-ECP] have been obtained from:
TURBOMOLE (7.0.2)

----- Orbital basis set information -----
Your calculation utilizes the basis: def2-mTZVPP
   Stefan Grimme, Andreas Hansen, Sebastian Ehlert, and Jan-Michael Mewes 
   J. Chem. Phys. 154, 064103 (2021). DOI: 10.1063/5.0040021

----- AuxJ basis set information -----
Your calculation utilizes the basis: def2-mTZVPP/J
   Stefan Grimme, Andreas Hansen, Sebastian Ehlert, and Jan-Michael Mewes 
   J. Chem. Phys. 154, 000000 (2021). DOI: 10.1063/5.0040021

================================================================================
                                        WARNINGS
                       Please study these warnings very carefully!
================================================================================



WARNING: SCAN, rSCAN, or r2SCAN functional requested.
  ===> : libXC variant has now been activated.



WARNING: Geometry Optimization
  ===> : Switching off AutoStart
         For restart on a previous wavefunction, please use MOREAD


                       *****************************
                       * Geometry Optimization Run *
                       *****************************

Geometry optimization settings:
Update method            Update   .... BFGS
Choice of coordinates    CoordSys .... (2022) Redundant Internals
Initial Hessian          InHess   .... Almloef's Model
Max. no of cycles        MaxIter  .... 5

Convergence Tolerances:
Energy Change            TolE     ....  5.0000e-06 Eh
Max. Gradient            TolMAXG  ....  3.0000e-04 Eh/bohr
RMS Gradient             TolRMSG  ....  1.0000e-04 Eh/bohr
Max. Displacement        TolMAXD  ....  4.0000e-03 bohr
RMS Displacement         TolRMSD  ....  2.0000e-03 bohr
Strict Convergence                .... False

------------------------------------------------------------------------------
                        ORCA OPTIMIZATION COORDINATE SETUP
------------------------------------------------------------------------------

The optimization will be done in redundant internal coordinates (2022)
Making redundant internal coordinates   ...  (2022 redundants) done
Evaluating the initial hessian          ...  (Almloef) done
Evaluating the coordinates              ...  done
Calculating the B-matrix                .... done
Calculating the G-matrix                .... done
Diagonalizing the G-matrix              .... done
Small eigenvalue found = 1.419e-02
The first mode is                       ....   91
The number of degrees of freedom        ....   78

    -----------------------------------------------------------------
                    Redundant Internal Coordinates


    -----------------------------------------------------------------
         Definition                    Initial Value    Approx d2E/dq
    -----------------------------------------------------------------
      1. B(O   1,Ru  0)                  2.2423         0.247319   
      2. B(C   2,Ru  0)                  1.8721         1.075631   
      3. B(H   3,C   2)                  1.0960         0.352225   
      4. B(C   4,O   1)                  1.4281         0.486552   
      5. B(H   5,C   4)                  1.0997         0.347549   
      6. B(C   6,C   4)                  1.5265         0.378362   
      7. B(H   7,C   6)                  1.0876         0.363272   
      8. B(H   8,C   6)                  1.0863         0.364980   
      9. B(H   9,C   6)                  1.0887         0.361835   
     10. B(C  10,C   4)                  1.5255         0.379832   
     11. B(H  11,C  10)                  1.1021         0.344481   
     12. B(H  12,C  10)                  1.0862         0.365196   
     13. B(H  13,C  10)                  1.0900         0.360135   
     14. B(C  14,O   1)                  1.3482         0.652441   
     15. B(C  15,C  14)                  1.3871         0.631457   
     16. B(H  16,C  15)                  1.0785         0.375696   
     17. B(C  17,C  15)                  1.3859         0.634350   
     18. B(H  18,C  17)                  1.0793         0.374497   
     19. B(C  19,C  17)                  1.3890         0.627079   
     20. B(H  20,C  19)                  1.0788         0.375169   
     21. B(C  21,C  19)                  1.3766         0.656300   
     22. B(H  22,C  21)                  1.0796         0.374139   
     23. B(C  23,C  21)                  1.4067         0.587645   
     24. B(C  23,C  14)                  1.4269         0.545586   
     25. B(C  23,C   2)                  1.4185         0.562703   
     26. B(C  23,Ru  0)                  2.8156         0.033608   
     27. B(Cl 24,Ru  0)                  2.3188         0.467729   
     28. B(Cl 25,Ru  0)                  2.3285         0.451450   
     29. B(C  26,Ru  0)                  2.0216         0.621245   
     30. B(O  27,C  26)                  1.1340         1.433266   
     31. A(Cl 24,Ru  0,C  26)           96.6308         0.538903   
     32. A(O   1,Ru  0,C  23)           53.2783         0.281132   
     33. A(O   1,Ru  0,Cl 25)           85.3282         0.449215   
     34. A(O   1,Ru  0,C   2)           79.9353         0.510007   
     35. A(C   2,Ru  0,Cl 25)          100.4160         0.594354   
[...]
 33:    625.48   0.000368    1.86  0.000183  (-0.000664 -0.012374 -0.005463)
 34:    630.76   0.004506   22.77  0.002229  (-0.040872  0.019825  0.012870)
 35:    730.42   0.000071    0.36  0.000030  (-0.001643  0.000684  0.005208)
 36:    747.84   0.011909   60.18  0.004970  (-0.009519  0.022094 -0.066263)
 37:    797.71   0.001128    5.70  0.000441  ( 0.020334 -0.004861  0.001993)
 38:    820.42   0.003202   16.18  0.001218  (-0.004502 -0.034235 -0.005051)
 39:    836.19   0.003495   17.66  0.001304  ( 0.003032 -0.008018  0.035082)
 40:    862.50   0.001408    7.12  0.000510  ( 0.002828 -0.007406  0.021136)
 41:    870.83   0.002070   10.46  0.000742  (-0.021683  0.016478  0.000359)
 42:    897.66   0.005821   29.42  0.002024  ( 0.036304 -0.024330 -0.010657)
 43:    939.83   0.004951   25.02  0.001644  (-0.003610 -0.038555 -0.012014)
 44:    942.96   0.005276   26.67  0.001746  (-0.001604 -0.041590  0.003727)
 45:    945.85   0.002939   14.85  0.000970  ( 0.008546  0.028198  0.010067)
 46:    951.91   0.001582    7.99  0.000519  ( 0.004640  0.020238  0.009351)
 47:    975.25   0.000011    0.05  0.000003  (-0.000971  0.001475  0.000548)
 48:   1063.90   0.001260    6.37  0.000370  (-0.010272 -0.016087 -0.002316)
 49:   1120.36   0.016801   84.90  0.004680  ( 0.012023 -0.063489 -0.022455)
 50:   1146.41   0.007730   39.06  0.002104  ( 0.003433  0.044099  0.012154)
 51:   1160.61   0.001685    8.52  0.000453  ( 0.013770 -0.010033  0.012764)
 52:   1190.49   0.001721    8.70  0.000451  ( 0.010313 -0.014203 -0.011960)
 53:   1205.14   0.002271   11.48  0.000588  ( 0.003064  0.023672 -0.004289)
 54:   1210.54   0.001049    5.30  0.000270  ( 0.015811  0.001403 -0.004289)
 55:   1249.07   0.008441   42.66  0.002109  ( 0.016221  0.042724  0.004521)
 56:   1287.92   0.005250   26.53  0.001272  ( 0.018491 -0.028236 -0.011532)
 57:   1341.05   0.010153   51.31  0.002363  ( 0.046061  0.015375 -0.002144)
 58:   1353.23   0.001713    8.66  0.000395  (-0.008857  0.017711 -0.001705)
 59:   1371.82   0.001052    5.32  0.000239  (-0.013599  0.003473  0.006511)
 60:   1377.85   0.002266   11.45  0.000513  ( 0.018374 -0.013252 -0.000206)
 61:   1400.29   0.004687   23.69  0.001045  ( 0.022037  0.000421  0.023639)
 62:   1414.73   0.008117   41.02  0.001790  (-0.000521 -0.042073  0.004471)
 63:   1471.54   0.001003    5.07  0.000213  ( 0.008184  0.007913  0.009117)
 64:   1481.95   0.001361    6.88  0.000287  (-0.011850  0.008144  0.008936)
 65:   1487.96   0.007058   35.67  0.001480  ( 0.026863  0.027097 -0.004932)
 66:   1489.80   0.003050   15.41  0.000639  ( 0.006281  0.017063  0.017556)
 67:   1498.66   0.007515   37.98  0.001565  ( 0.016393  0.035796  0.003855)
 68:   1512.17   0.003999   20.21  0.000825  (-0.000705 -0.025529 -0.013154)
 69:   1606.52   0.002586   13.07  0.000502  ( 0.004918  0.021004  0.006077)
 70:   1628.58   0.013375   67.59  0.002563  ( 0.048097  0.014751 -0.005657)
 71:   2072.44   0.189676  958.55  0.028561  (-0.155663  0.050857  0.041756)
 72:   3018.89   0.000997    5.04  0.000103  ( 0.005884  0.006939  0.004501)
 73:   3032.84   0.002479   12.53  0.000255  (-0.010300  0.011984 -0.002309)
 74:   3039.87   0.002532   12.80  0.000260  (-0.009386 -0.001019  0.013070)
 75:   3105.26   0.001898    9.59  0.000191  (-0.006292  0.009226  0.008125)
 76:   3110.53   0.000744    3.76  0.000075  (-0.004109  0.006717  0.003562)
 77:   3121.31   0.002380   12.03  0.000238  ( 0.002325  0.012535  0.008683)
 78:   3134.94   0.000636    3.21  0.000063  ( 0.006967  0.003814 -0.000446)
 79:   3136.71   0.000407    2.06  0.000041  (-0.000252  0.004135 -0.004832)
 80:   3179.89   0.000050    0.25  0.000005  (-0.000337  0.002100  0.000639)
 81:   3185.76   0.000470    2.37  0.000046  ( 0.004625 -0.004093 -0.002807)
 82:   3201.95   0.001773    8.96  0.000173  ( 0.008987  0.009424  0.001784)
 83:   3217.76   0.000415    2.10  0.000040  ( 0.004064 -0.004550 -0.001738)

* The epsilon (eps) is given for a Dirac delta lineshape.
** The dipole moment derivative (T) already includes vibrational overlap.

The first frequency considered to be a vibration is 6
The total number of vibrations considered is 78


--------------------------
THERMOCHEMISTRY AT 298.15K
--------------------------

Temperature         ...   298.15 K
Pressure            ...     1.00 atm
Total Mass          ...   348.19 AMU
Quasi RRHO          ...     True
Cut-Off Frequency   ...     1.00 cm^-1

Throughout the following assumptions are being made:
  (1) The electronic state is orbitally nondegenerate
  (2) There are no thermally accessible electronically excited states
  (3) Hindered rotations indicated by low frequency modes are not
      treated as such but are treated as vibrations and this may
      cause some error
  (4) All equations used are the standard statistical mechanics
      equations for an ideal gas
  (5) All vibrations are strictly harmonic

freq.      49.75  E(vib)   ...       0.52 
freq.      75.31  E(vib)   ...       0.49 
freq.      77.88  E(vib)   ...       0.49 
freq.      81.95  E(vib)   ...       0.48 
freq.     104.15  E(vib)   ...       0.46 
freq.     111.42  E(vib)   ...       0.45 
freq.     116.63  E(vib)   ...       0.44 
freq.     136.01  E(vib)   ...       0.42 
freq.     146.75  E(vib)   ...       0.41 
freq.     155.49  E(vib)   ...       0.40 
freq.     202.58  E(vib)   ...       0.35 
freq.     223.48  E(vib)   ...       0.33 
freq.     237.55  E(vib)   ...       0.32 
freq.     247.29  E(vib)   ...       0.31 
freq.     282.44  E(vib)   ...       0.28 
freq.     313.09  E(vib)   ...       0.25 
freq.     325.10  E(vib)   ...       0.24 
freq.     355.56  E(vib)   ...       0.22 
freq.     367.92  E(vib)   ...       0.21 
freq.     385.50  E(vib)   ...       0.20 
freq.     443.69  E(vib)   ...       0.17 
freq.     455.07  E(vib)   ...       0.16 
freq.     496.59  E(vib)   ...       0.14 
freq.     542.48  E(vib)   ...       0.12 
freq.     546.44  E(vib)   ...       0.12 
freq.     565.91  E(vib)   ...       0.11 
freq.     569.23  E(vib)   ...       0.11 
freq.     625.48  E(vib)   ...       0.09 
freq.     630.76  E(vib)   ...       0.09 
freq.     730.42  E(vib)   ...       0.06 
freq.     747.84  E(vib)   ...       0.06 
freq.     797.71  E(vib)   ...       0.05 
freq.     820.42  E(vib)   ...       0.05 
freq.     836.19  E(vib)   ...       0.04 
freq.     862.50  E(vib)   ...       0.04 
freq.     870.83  E(vib)   ...       0.04 
freq.     897.66  E(vib)   ...       0.03 
freq.     939.83  E(vib)   ...       0.03 
freq.     942.96  E(vib)   ...       0.03 
freq.     945.85  E(vib)   ...       0.03 
freq.     951.91  E(vib)   ...       0.03 
freq.     975.25  E(vib)   ...       0.03 
freq.    1063.90  E(vib)   ...       0.02 
freq.    1120.36  E(vib)   ...       0.01 
freq.    1146.41  E(vib)   ...       0.01 
freq.    1160.61  E(vib)   ...       0.01 
freq.    1190.49  E(vib)   ...       0.01 
freq.    1205.14  E(vib)   ...       0.01 
freq.    1210.54  E(vib)   ...       0.01 
freq.    1249.07  E(vib)   ...       0.01 
freq.    1287.92  E(vib)   ...       0.01 
freq.    1341.05  E(vib)   ...       0.01 
freq.    1353.23  E(vib)   ...       0.01 
freq.    1371.82  E(vib)   ...       0.01 
freq.    1377.85  E(vib)   ...       0.01 
freq.    1400.29  E(vib)   ...       0.00 
freq.    1414.73  E(vib)   ...       0.00 
freq.    1471.54  E(vib)   ...       0.00 
freq.    1481.95  E(vib)   ...       0.00 
freq.    1487.96  E(vib)   ...       0.00 
freq.    1489.80  E(vib)   ...       0.00 
freq.    1498.66  E(vib)   ...       0.00 
freq.    1512.17  E(vib)   ...       0.00 
freq.    1606.52  E(vib)   ...       0.00 
freq.    1628.58  E(vib)   ...       0.00 
freq.    2072.44  E(vib)   ...       0.00 
freq.    3018.89  E(vib)   ...       0.00 
freq.    3032.84  E(vib)   ...       0.00 
freq.    3039.87  E(vib)   ...       0.00 
freq.    3105.26  E(vib)   ...       0.00 
freq.    3110.53  E(vib)   ...       0.00 
freq.    3121.31  E(vib)   ...       0.00 
freq.    3134.94  E(vib)   ...       0.00 
freq.    3136.71  E(vib)   ...       0.00 
freq.    3179.89  E(vib)   ...       0.00 
freq.    3185.76  E(vib)   ...       0.00 
freq.    3201.95  E(vib)   ...       0.00 
freq.    3217.76  E(vib)   ...       0.00 

------------
INNER ENERGY
------------

The inner energy is: U= E(el) + E(ZPE) + E(vib) + E(rot) + E(trans)
    E(el)   - is the total energy from the electronic structure calculation
              = E(kin-el) + E(nuc-el) + E(el-el) + E(nuc-nuc)
    E(ZPE)  - the the zero temperature vibrational energy from the frequency calculation
    E(vib)  - the the finite temperature correction to E(ZPE) due to population
              of excited vibrational states
    E(rot)  - is the rotational thermal energy
    E(trans)- is the translational thermal energy

Summary of contributions to the inner energy U:
Electronic energy                ...  -1592.17829510 Eh
Zero point energy                ...      0.20690236 Eh     129.83 kcal/mol
Thermal vibrational correction   ...      0.01445293 Eh       9.07 kcal/mol
Thermal rotational correction    ...      0.00141627 Eh       0.89 kcal/mol
Thermal translational correction ...      0.00141627 Eh       0.89 kcal/mol
-----------------------------------------------------------------------
Total thermal energy                  -1591.95410727 Eh


Summary of corrections to the electronic energy:
(perhaps to be used in another calculation)
Total thermal correction                  0.01728547 Eh      10.85 kcal/mol
Non-thermal (ZPE) correction              0.20690236 Eh     129.83 kcal/mol
-----------------------------------------------------------------------
Total correction                          0.22418783 Eh     140.68 kcal/mol


--------
ENTHALPY
--------

The enthalpy is H = U + kB*T
                kB is Boltzmann's constant
Total thermal energy              ...  -1591.95410727 Eh 
Thermal Enthalpy correction       ...      0.00094421 Eh       0.59 kcal/mol
-----------------------------------------------------------------------
Total Enthalpy                    ...  -1591.95316306 Eh


Note: Only C1 symmetry has been detected, increase convergence thresholds 
      if your molecule has a higher symmetry. Symmetry factor of 1.0 is   
      used for the rotational entropy correction. 
 

Note: Rotational entropy computed according to Herzberg 
Infrared and Raman Spectra, Chapter V,1, Van Nostrand Reinhold, 1945 
Point Group:  C1, Symmetry Number:   1  
Rotational constants in cm-1:     0.016266     0.009960     0.008601 

Vibrational entropy computed according to the QRRHO of S. Grimme
Chem.Eur.J. 2012 18 9955 using a reference frequency of 100.0 cm-1


-------
ENTROPY
-------

The entropy contributions are T*S = T*(S(el)+S(vib)+S(rot)+S(trans))
     S(el)   - electronic entropy
     S(vib)  - vibrational entropy
     S(rot)  - rotational entropy
     S(trans)- translational entropy
The entropies will be listed as multiplied by the temperature to get
units of energy

Electronic entropy                ...      0.00000000 Eh      0.00 kcal/mol
Vibrational entropy               ...      0.02556888 Eh     16.04 kcal/mol
Rotational entropy                ...      0.01587631 Eh      9.96 kcal/mol
Translational entropy             ...      0.02063816 Eh     12.95 kcal/mol
-----------------------------------------------------------------------
Final entropy term                ...      0.06208335 Eh     38.96 kcal/mol

In case the symmetry of your molecule has not been determined correctly
or in case you have a reason to use a different symmetry number we print 
out the resulting rotational entropy values for sn=1,12:

 non-linear molecules -----------------------------------
|  sn= 1 | S(rot)=       0.01587631 Eh      9.96 kcal/mol|
|  sn= 2 | S(rot)=       0.01522186 Eh      9.55 kcal/mol|
|  sn= 3 | S(rot)=       0.01483903 Eh      9.31 kcal/mol|
|  sn= 4 | S(rot)=       0.01456740 Eh      9.14 kcal/mol|
|  sn= 5 | S(rot)=       0.01435671 Eh      9.01 kcal/mol|
|  sn= 6 | S(rot)=       0.01418457 Eh      8.90 kcal/mol|
|  sn= 7 | S(rot)=       0.01403902 Eh      8.81 kcal/mol|
|  sn= 8 | S(rot)=       0.01391295 Eh      8.73 kcal/mol|
|  sn= 9 | S(rot)=       0.01380174 Eh      8.66 kcal/mol|
|  sn=10 | S(rot)=       0.01370226 Eh      8.60 kcal/mol|
|  sn=11 | S(rot)=       0.01361227 Eh      8.54 kcal/mol|
|  sn=12 | S(rot)=       0.01353011 Eh      8.49 kcal/mol|
 linear molecules ---------------------------------------
|  Dinfh | S(rot)=       0.00981619 Eh      6.16 kcal/mol|
|  Cinfv | S(rot)=       0.01047064 Eh      6.57 kcal/mol|
 --------------------------------------------------------


-------------------
GIBBS FREE ENERGY
-------------------

The Gibbs free energy is G = H - T*S

Total enthalpy                    ...  -1591.95316306 Eh 
Total entropy correction          ...     -0.06208335 Eh    -38.96 kcal/mol
-----------------------------------------------------------------------
Final Gibbs free energy         ...  -1592.01524640 Eh

For completeness - the Gibbs free energy minus the electronic energy
G-E(el)                           ...      0.16304869 Eh    102.31 kcal/mol


Maximum memory used throughout the entire PROP-calculation: 76.0 MB

Timings for individual modules:

Sum of individual times          ...      355.494 sec (=   5.925 min)
Startup calculation              ...        4.089 sec (=   0.068 min)   1.2 %
SCF iterations                   ...       16.765 sec (=   0.279 min)   4.7 %
Property integrals               ...      170.089 sec (=   2.835 min)  47.8 %
SCF Response                     ...      110.719 sec (=   1.845 min)  31.1 %
Property calculations            ...       53.832 sec (=   0.897 min)  15.1 %
================================================================================

cite the ECPs for Ru [Def2-ECP] as follows:
Ce-Yb(ecp-28): M. Dolg, H. Stoll, H.Preuss, J. Chem. Phys., 1989, 90, 1730-1734.
Y-Cd(ecp-28), Hf-Hg(ecp-46): D. Andrae,U. Haeussermann, M. Dolg, H. Stoll, H. Preuss, Theor. Chim. Acta, 1990, 77, 123-141.
In-Sb(ecp-28), Tl-Bi(ecp-46): B. Metz, H. Stoll, M. Dolg, J. Chem. Phys., 2000, 113, 2563-2569.
Te-Xe(ecp-28), Po-Rn(ecp-46): K. A. Peterson, D. Figgen, E. Goll, H. Stoll, M. Dolg, J. Chem. Phys., 2003, 119, 11113-11123.
Rb(ecp-28), Cs(ecp-46): T. Leininger, A. Nicklass, W. Kuechle, H. Stoll, M. Dolg, A. Bergner, Chem. Phys. Lett., 1996, 255, 274-280.
Sr(ecp-28), Ba(ecp-46): M. Kaupp, P. V. Schleyer, H. Stoll and H. Preuss, J. Chem. Phys., 1991, 94, 1360-1366.
La(ecp-46): M. Dolg, H. Stoll, A. Savin, H. Preuss, Theor. Chim. Acta, 1989, 75, 173-194.
Lu(ecp-28): X. Cao, M. Dolg, J. Chem. Phys., 2001, 115, 7348-7355.

ECP parameters for Ru [Def2-ECP] have been obtained from:
TURBOMOLE (7.0.2)

----- Orbital basis set information -----
Your calculation utilizes the basis: def2-SVP
   F. Weigend and R. Ahlrichs, Phys. Chem. Chem. Phys. 7, 3297 (2005).


--------------------------------
SUGGESTED CITATIONS FOR THIS RUN
--------------------------------

Below you find a list of papers that are relevant to this ORCA run
We neither can nor want to force you to cite these papers, but we appreciate if you do
You receive ORCA, which is the product of decades of hard work by many enthusiastic individuals, for free
The only thing we kindly ask in return is that you cite our papers,
We deeply appreciate it, if you show your appreciation for ORCA by not just citing the generic ORCA reference.

Please note that relegating all ORCA citations to the supporting information does *not* help us.
SI sections are not indexed - citations you put there will not count into any citation statistics
But we need these citations in order to attract the funding resources that allow us to do what we are doing

Therefore, if you are a happy ORCA user, please consider citing a few of the papers listed below in the main body of your paper

In addition to the list printed below, the program has created the file cli48.bibtex that contains the list in bibtex format
You can import this file easily into all common literature databanks and citation aid programs


List of essential papers. We consider these as the minimum necessary citations

  1. Neese,F.
     Software update: the ORCA program system, version 5.0
     WIRES Comput. Molec. Sci., 2022 12(1)e1606
     doi.org/10.1002/wcms.1606
  2. Grimme,S.; Hansen,A.; Ehlert,S.; Mewes,J.
     r2SCAN-3c: A 'Swiss army knife' composite electronic-structure method
     J. Chem. Phys., 2021 154 064103
     doi.org/10.1063/5.0040021

List of papers to cite with high priority. The work reported in these papers was absolutely
necessary for this run to complete.
Our perspective: the developers of density functionals and basis sets usually get cited in chemistry papers
Good! But without the algorithms to do something with them, the functionals or basis sets would not do anything.
Hence, in our opinion, the algorithm design and method developments papers are equally worthy of getting cited

  1. Neese,F.
     An improvement of the resolution of the identity approximation for the formation of the Coulomb matrix
     J. Comp. Chem., 2003 24(14)1740-1747
     doi.org/10.1002/jcc.10318
  2. Bykov,D.; Petrenko,T.; Izsak,R.; Kossmann,S.; Becker,U.; Valeev,E.; Neese,F.
     Efficient implementation of the analytic second derivatives of Hartree-Fock and hybrid DFT energies: a detailed analysis of different approximations
     Molec. Phys., 2015 113 1961-1977
     doi.org/10.1080/00268976.2015.1025114
  3. Neese,F.
     The SHARK Integral Generation and Digestion System
     J. Comp. Chem., 2022  1-16
     doi.org/10.1002/jcc.26942
  4. Lehtola,S.; Steigemann,C.; Oliveira,M.; Marques,M.
     Recent developments in Libxc - A comprehensive library of functionals for density functional theory
     Software X, 2018 7 
     doi.org/10.1016/j.softx.2017.11.002
  5. Caldeweyher,E.; Bannwarth,C.; Grimme,S.
     Extension of the D3 dispersion coefficient model
     J. Chem. Phys., 2017 147 034112
     doi.org/10.1063/1.4993215
  6. Caldeweyher,E.; Ehlert,S.; Hansen,A.; Neugebauer,H.; Spicher,S.; Bannwarth,C.; Grimme,S.
     A generally applicable atomic-charge dependent London dispersion correction
     J. Chem. Phys., 2019 150 154122
     doi.org/10.1063/1.5090222
  7. Caldeweyher,E.; Mewes,J.; Ehlert,S.; Grimme,S.
     Extension and evaluation of the D4 London-dispersion model for periodic systems
     Phys. Chem. Chem. Phys., 2020 22(16)8499-8512
     doi.org/10.1039/D0CP00502A
  8. Wittmann,L.; Gordiy,I.; Friede,M.; Helmich-Paris,B.; Grimme,S.; Hansen,A.; Bursch,M.
     Extension of the D3 and D4 London Dispersion Corrections to the full Actinides Series
     Phys. Chem. Chem. Phys., 2024 26(32)21379-21394
     doi.org/https://doi.org/10.1039/D4CP01514B 

List of suggested additional citations. These are papers that are important in the 'surrounding' of 
of this run, or papers that preceded the highly important papers. If you like your results we are grateful for a citation.

  1. Neese,F.
     The ORCA program system
     WIRES Comput. Molec. Sci., 2012 2(1)73-78
     doi.org/10.1002/wcms.81
  2. Neese,F.
     Software update: the ORCA program system, version 4.0
     WIRES Comput. Molec. Sci., 2018 8(1)1-6
     doi.org/10.1002/wcms.1327
  3. Neese,F.; Wennmohs,F.; Becker,U.; Riplinger,C.
     The ORCA quantum chemistry program package
     J. Chem. Phys., 2020 152 Art. No. L224108
     doi.org/10.1063/5.0004608

List of optional additional citations

  1. Neese,F.
     Approximate second-order SCF convergence for spin unrestricted wavefunctions
     Chem. Phys. Lett., 2000 325(1-3)93-98
     doi.org/10.1016/s0009-2614(00)00662-x
                             ****ORCA TERMINATED NORMALLY****
TOTAL RUN TIME: 0 days 0 hours 10 minutes 3 seconds 9 msec
8874.99user 647.16system 10:04.22elapsed 1575%CPU (0avgtext+0avgdata 741352maxresident)k
211877972inputs+11428985outputs (419401major+37054395minor)pagefaults 0swaps
