2
      -----------------------------------------------------------      
     |                   =====================                   |     
     |                           x T B                           |     
     |                   =====================                   |     
     |                         S. Grimme                         |     
     |          Mulliken Center for Theoretical Chemistry        |     
     |                    University of Bonn                     |     
      -----------------------------------------------------------      

   * xtb version 6.4.1 (afa7bdf) compiled by 'ehlert@majestix' on 2021-06-10

   xtb is free software: you can redistribute it and/or modify it under
   the terms of the GNU Lesser General Public License as published by
   the Free Software Foundation, either version 3 of the License, or
   (at your option) any later version.
   
   xtb is distributed in the hope that it will be useful,
   but WITHOUT ANY WARRANTY; without even the implied warranty of
   MERCHANTABILITY or FITNESS FOR A PARTICULAR PURPOSE.  See the
   GNU Lesser General Public License for more details.
   
   Cite this work as:
   * C. Bannwarth, E. Caldeweyher, S. Ehlert, A. Hansen, P. Pracht,
     J. Seibert, S. Spicher, S. Grimme, WIREs Comput. Mol. Sci., 2020, 11,
     e01493. DOI: 10.1002/wcms.1493
   
   for GFN2-xTB:
   * C. Bannwarth, S. Ehlert and S. Grimme., J. Chem. Theory Comput., 2019,
     15, 1652-1671. DOI: 10.1021/acs.jctc.8b01176
   for GFN1-xTB:
   * S. Grimme, C. Bannwarth, P. Shushkov, J. Chem. Theory Comput., 2017,
     13, 1989-2009. DOI: 10.1021/acs.jctc.7b00118
   for GFN0-xTB:
   * P. Pracht, E. Caldeweyher, S. Ehlert, S. Grimme, ChemRxiv, 2019, preprint.
     DOI: 10.26434/chemrxiv.8326202.v1
   for GFN-FF:
   * S. Spicher and S. Grimme, Angew. Chem. Int. Ed., 2020, 59, 15665-15673.
     DOI: 10.1002/anie.202004239
   
   for DFT-D4:
   * E. Caldeweyher, C. Bannwarth and S. Grimme, J. Chem. Phys., 2017,
     147, 034112. DOI: 10.1063/1.4993215
   * E. Caldeweyher, S. Ehlert, A. Hansen, H. Neugebauer, S. Spicher,
     C. Bannwarth and S. Grimme, J. Chem. Phys., 2019, 150, 154122.
     DOI: 10.1063/1.5090222
   * E. Caldeweyher, J.-M. Mewes, S. Ehlert and S. Grimme, Phys. Chem. Chem. Phys.
     2020, 22, 8499-8512. DOI: 10.1039/D0CP00502A
   
   for sTDA-xTB:
   * S. Grimme and C. Bannwarth, J. Chem. Phys., 2016, 145, 054103.
     DOI: 10.1063/1.4959605
   
   in the mass-spec context:
   * V. Asgeirsson, C. Bauer and S. Grimme, Chem. Sci., 2017, 8, 4879.
     DOI: 10.1039/c7sc00601b
   * J. Koopman and S. Grimme, ACS Omega 2019, 4, 12, 15120-15133.
     DOI: 10.1021/acsomega.9b02011
   
   for metadynamics refer to:
   * S. Grimme, J. Chem. Theory Comput., 2019, 155, 2847-2862
     DOI: 10.1021/acs.jctc.9b00143
   
   for SPH calculations refer to:
   * S. Spicher and S. Grimme, J. Chem. Theory Comput., 2021, 17, 1701-1714
     DOI: 10.1021/acs.jctc.0c01306
   
   with help from (in alphabetical order)
   P. Atkinson, C. Bannwarth, F. Bohle, G. Brandenburg, E. Caldeweyher
   M. Checinski, S. Dohm, S. Ehlert, S. Ehrlich, I. Gerasimov, J. Koopman
   C. Lavigne, S. Lehtola, F. März, M. Müller, F. Musil, H. Neugebauer
   J. Pisarek, C. Plett, P. Pracht, J. Seibert, P. Shushkov, S. Spicher
   M. Stahn, M. Steiner, T. Strunk, J. Stückrath, T. Rose, and J. Unsleber
   
 * started run on 2025/08/30 at 01:28:01.586     

           -------------------------------------------------
          |                Calculation Setup                |
           -------------------------------------------------

          program call               : xtb cli24.sdf --input cli24.xcontrol --acc 0.05
          hostname                   : c5-11
          coordinate file            : cli24.sdf
          omp threads                :                    10
          number of atoms            :                    61
          number of electrons        :                   160
          charge                     :                     0
          spin                       :                   0.0
          first test random number   :      0.10297953698470

   ID    Z sym.   atoms
    1   44 Ru     1
    2    6 C      2, 4, 6, 13, 14, 17, 20-22, 24, 25, 27, 28, 32, 36, 40-42,
                  44, 45, 47, 48, 52, 56
    3    1 H      3, 5, 7-10, 15, 16, 18, 19, 23, 26, 29-31, 33-35, 37-39,
                  43, 46, 49-51, 53-55, 57-59
    4    7 N      11, 12
    5   17 Cl     60, 61
constraining bond 1 2 to    1.9675113 Å, actual value:    1.9675113 Å
constraining bond 1 6 to    1.9674744 Å, actual value:    1.9674744 Å
constraining bond 1 13 to    2.0224877 Å, actual value:    2.0224877 Å
constraining bond 1 60 to    2.3644066 Å, actual value:    2.3644066 Å
constraining bond 1 61 to    2.3644913 Å, actual value:    2.3644913 Å
constraining angle 2 1 6 to   88.1432326°, actual value:   88.1432326°
constraining angle 2 1 13 to  135.9289262°, actual value:  135.9289262°
constraining angle 2 1 60 to   88.6459320°, actual value:   88.6459320°
constraining angle 2 1 61 to   88.0589750°, actual value:   88.0589750°
constraining angle 6 1 13 to  135.9278180°, actual value:  135.9278180°
constraining angle 6 1 60 to   88.0403131°, actual value:   88.0403131°
constraining angle 6 1 61 to   88.6648460°, actual value:   88.6648460°
constraining angle 13 1 60 to   92.2705603°, actual value:   92.2705603°
constraining angle 13 1 61 to   92.3160507°, actual value:   92.3160507°
constraining angle 60 1 61 to  175.4133889°, actual value:  175.4133889°
constraining angle 6 1 2 3 to -110.3542644°, actual value: -110.3542644°
constraining angle 6 1 2 10 to  110.2157507°, actual value:  110.2157507°
constraining angle 13 1 2 3 to   69.6972371°, actual value:   69.6972371°
constraining angle 13 1 2 10 to  -69.7327478°, actual value:  -69.7327478°
constraining angle 60 1 2 3 to  161.5630707°, actual value:  161.5630707°
constraining angle 60 1 2 10 to   22.1330858°, actual value:   22.1330858°
constraining angle 61 1 2 3 to  -21.6279224°, actual value:  -21.6279224°
constraining angle 61 1 2 10 to -161.0579072°, actual value: -161.0579072°
constraining angle 2 1 6 7 to -110.3445770°, actual value: -110.3445770°
constraining angle 2 1 6 8 to  110.2317898°, actual value:  110.2317898°
constraining angle 13 1 6 7 to   69.6039225°, actual value:   69.6039225°
constraining angle 13 1 6 8 to  -69.8197106°, actual value:  -69.8197106°
constraining angle 60 1 6 7 to  -21.6365785°, actual value:  -21.6365785°
constraining angle 60 1 6 8 to -161.0602116°, actual value: -161.0602116°
constraining angle 61 1 6 7 to  161.5546804°, actual value:  161.5546804°
constraining angle 61 1 6 8 to   22.1310473°, actual value:   22.1310473°
########################################################################
[WARNING] Please study the warnings concerning your input carefully
-1- set_rdsetbl: Set-blocks will become obsolete in xtb 6.0 and newer
########################################################################

           -------------------------------------------------
          |                 G F N 2 - x T B                 |
           -------------------------------------------------

        Reference                      10.1021/acs.jctc.8b01176
      * Hamiltonian:
        H0-scaling (s, p, d)           1.850000    2.230000    2.230000
        zeta-weighting                 0.500000
      * Dispersion:
        s8                             2.700000
        a1                             0.520000
        a2                             5.000000
        s9                             5.000000
      * Repulsion:
        kExp                           1.500000    1.000000
        rExp                           1.000000
      * Coulomb:
        alpha                          2.000000
        third order                    shell-resolved
        anisotropic                    true
        a3                             3.000000
        a5                             4.000000
        cn-shift                       1.200000
        cn-exp                         4.000000
        max-rad                        5.000000

q/qsh data taken from xtbrestart
CAMM data taken from xtbrestart

          ...................................................
          :                      SETUP                      :
          :.................................................:
          :  # basis functions                 166          :
          :  # atomic orbitals                 163          :
          :  # shells                           93          :
          :  # electrons                       160          :
          :  max. iterations                  1000          :
          :  Hamiltonian                  GFN2-xTB          :
          :  restarted?                       true          :
          :  GBSA solvation                  false          :
          :  PC potential                    false          :
          :  electronic temp.          300.0000000     K    :
          :  accuracy                    0.0500000          :
          :  -> integral cutoff          0.3801030E+02      :
          :  -> integral neglect         0.5000000E-09      :
          :  -> SCF convergence          0.5000000E-07 Eh   :
          :  -> wf. convergence          0.5000000E-05 e    :
          :  Broyden damping             0.4000000          :
          ...................................................

 iter      E             dE          RMSdq      gap      omega  full diag
   1    -87.1324812 -0.871325E+02  0.291E-05    1.66       0.0  T
   2    -87.1324812  0.107448E-09  0.611E-05    1.66     209.5  T
   3    -87.1324812 -0.121545E-09  0.124E-05    1.66    1036.2  T
   4    -87.1324812  0.127898E-12  0.823E-06    1.66    1556.1  T

   *** convergence criteria satisfied after 4 iterations ***

         #    Occupation            Energy/Eh            Energy/eV
      -------------------------------------------------------------
         1        2.0000           -1.0150916             -27.6220
       ...           ...                  ...                  ...
        74        2.0000           -0.3773312             -10.2677
        75        2.0000           -0.3741808             -10.1820
        76        2.0000           -0.3704011             -10.0791
        77        2.0000           -0.3694124             -10.0522
        78        2.0000           -0.3684531             -10.0261
        79        2.0000           -0.3402674              -9.2591
        80        2.0000           -0.3340710              -9.0905 (HOMO)
        81                         -0.2731160              -7.4319 (LUMO)
        82                         -0.2706515              -7.3648
        83                         -0.2344637              -6.3801
        84                         -0.2287024              -6.2233
        85                         -0.2255555              -6.1377
       ...                                ...                  ...
       163                          2.5377059              69.0545
      -------------------------------------------------------------
                  HL-Gap            0.0609550 Eh            1.6587 eV
             Fermi-level           -0.3035935 Eh           -8.2612 eV

 SCC (total)                   0 d,  0 h,  0 min,  0.051 sec
 SCC setup                      ...        0 min,  0.000 sec (  0.809%)
 Dispersion                     ...        0 min,  0.001 sec (  2.064%)
 classical contributions        ...        0 min,  0.000 sec (  0.162%)
 integral evaluation            ...        0 min,  0.006 sec ( 12.229%)
 iterations                     ...        0 min,  0.028 sec ( 55.556%)
 molecular gradient             ...        0 min,  0.014 sec ( 28.608%)
 printout                       ...        0 min,  0.000 sec (  0.495%)

         :::::::::::::::::::::::::::::::::::::::::::::::::::::
         ::                     SUMMARY                     ::
         :::::::::::::::::::::::::::::::::::::::::::::::::::::
         :: total energy             -85.947038113610 Eh    ::
         :: gradient norm              0.087631540071 Eh/a0 ::
         :: HOMO-LUMO gap              1.658670322101 eV    ::
         ::.................................................::
         :: SCC energy               -87.132481189163 Eh    ::
         :: -> isotropic ES            0.048875980506 Eh    ::
         :: -> anisotropic ES          0.006811122895 Eh    ::
         :: -> anisotropic XC          0.033801581773 Eh    ::
         :: -> dispersion             -0.083730254927 Eh    ::
         :: repulsion energy           1.182201226321 Eh    ::
         :: add. restraining           0.000000000000 Eh    ::
         :: total charge              -0.000000000000 e     ::
         :::::::::::::::::::::::::::::::::::::::::::::::::::::

      ----------------------------------------------------------- 
     |                   =====================                   |
     |                        A N C O P T                        |
     |                   =====================                   |
     |               Approximate Normal Coordinate               |
     |                Rational Function Optimizer                |
      ----------------------------------------------------------- 

Optimization log is written to 'cli24_xtbtrj.xyz'

          ...................................................
          :                      SETUP                      :
          :.................................................:
          :   optimization level            normal          :
          :   max. optcycles                   200          :
          :   ANC micro-cycles                  20          :
          :   degrees of freedom               177          :
          :.................................................:
          :   RF solver                   davidson          :
          :   write xtbopt.log                true          :
          :   linear?                        false          :
          :   energy convergence         0.5000000E-05 Eh   :
          :   grad. convergence          0.1000000E-02 Eh/α :
          :   maximium RF displ.         1.0000000          :
          :   Hlow (freq-cutoff)         0.1000000E-01      :
          :   Hmax (freq-cutoff)         5.0000000          :
          :   S6 in model hess.         20.0000000          :
          ...................................................

generating ANC from read Hessian ...
 Shifting diagonal of input Hessian by   1.005727018170872E-002
 Lowest  eigenvalues of input Hessian
    0.010000    0.000000    0.000000    0.000000    0.000000    0.000000
    0.000000    0.010097    0.010129    0.010162    0.010192    0.010231
    0.010261    0.010294    0.010394    0.010404    0.010852    0.010939
 Highest eigenvalues
    1.030437    1.031868    1.136783    1.137132    1.163888    1.164051
 

........................................................................
.............................. CYCLE    1 ..............................
........................................................................
   1    -87.1324812 -0.871325E+02  0.157E-06    1.66       0.0  T
   2    -87.1324812  0.113687E-12  0.331E-06    1.66    3871.9  T
   3    -87.1324812 -0.383693E-12  0.732E-07    1.66   17489.8  T
     SCC iter.                  ...        0 min,  0.016 sec
     gradient                   ...        0 min,  0.014 sec
 * total energy  :   -85.9470381 Eh     change       -0.9663381E-12 Eh
   gradient norm :     0.0876310 Eh/α   predicted     0.0000000E+00 (-100.00%)
   displ. norm   :     0.4797463 α      lambda       -0.2664406E-01
   maximum displ.:     0.2345061 α      in ANC's #33, #34, #60, ...

........................................................................
.............................. CYCLE    2 ..............................
........................................................................
   1    -87.1642761 -0.871643E+02  0.374E-01    1.36       0.0  T
   2    -87.1610011  0.327503E-02  0.413E-01    1.32       1.0  T
   3    -87.1626983 -0.169714E-02  0.355E-01    1.39       1.0  T
   4    -87.1654083 -0.271003E-02  0.156E-01    1.35       1.0  T
   5    -87.1650590  0.349318E-03  0.130E-01    1.34       1.0  T
   6    -87.1654826 -0.423607E-03  0.271E-02    1.35       1.0  T
   7    -87.1654879 -0.534697E-05  0.191E-02    1.36       1.0  T
   8    -87.1654936 -0.572476E-05  0.125E-02    1.35       1.0  T
   9    -87.1654949 -0.128349E-05  0.101E-02    1.35       1.3  T
  10    -87.1654979 -0.292457E-05  0.476E-03    1.35       2.7  T
  11    -87.1654982 -0.353505E-06  0.349E-03    1.35       3.7  T
  12    -87.1654985 -0.282832E-06  0.139E-03    1.35       9.2  T
  13    -87.1654985 -0.135355E-07  0.116E-03    1.35      11.1  T
  14    -87.1654985 -0.194570E-07  0.627E-04    1.35      20.4  T
  15    -87.1654985 -0.531573E-08  0.496E-04    1.35      25.8  T
  16    -87.1654985 -0.331819E-08  0.264E-04    1.35      48.4  T
  17    -87.1654985 -0.115644E-08  0.129E-04    1.35      99.5  T
  18    -87.1654985 -0.246018E-09  0.527E-05    1.35     243.1  T
  19    -87.1654985 -0.219558E-10  0.297E-05    1.35     430.7  T
  20    -87.1654985 -0.121076E-10  0.137E-05    1.35     937.1  T
     SCC iter.                  ...        0 min,  0.072 sec
     gradient                   ...        0 min,  0.014 sec
 * total energy  :   -85.9261163 Eh     change        0.2092184E-01 Eh
   gradient norm :     0.5908651 Eh/α   predicted    -0.1638873E-01 (-178.33%)
   displ. norm   :     0.3585001 α      lambda       -0.9302049E-01
   maximum displ.:     0.1497458 α      in ANC's #60, #33, #113, ...

........................................................................
.............................. CYCLE    3 ..............................
........................................................................
   1    -87.1758946 -0.871759E+02  0.348E-01    1.37       0.0  T
   2    -87.1764094 -0.514797E-03  0.344E-01    1.36       1.0  T
   3    -87.1771546 -0.745176E-03  0.167E-01    1.38       1.0  T
   4    -87.1742962  0.285837E-02  0.318E-01    1.33       1.0  T
   5    -87.1772507 -0.295452E-02  0.455E-02    1.37       1.0  T
   6    -87.1772547 -0.399552E-05  0.483E-02    1.35       1.0  T
   7    -87.1773373 -0.825776E-04  0.179E-02    1.36       1.0  T
   8    -87.1773389 -0.161521E-05  0.118E-02    1.36       1.1  T
   9    -87.1773403 -0.137981E-05  0.472E-03    1.36       2.7  T
  10    -87.1773406 -0.330564E-06  0.276E-03    1.36       4.6  T
  11    -87.1773407 -0.130663E-06  0.199E-03    1.36       6.4  T
  12    -87.1773408 -0.529213E-07  0.123E-03    1.36      10.4  T
  13    -87.1773408 -0.306405E-07  0.703E-04    1.36      18.2  T
  14    -87.1773408 -0.662160E-08  0.370E-04    1.36      34.6  T
  15    -87.1773408 -0.221205E-08  0.266E-04    1.36      48.1  T
  16    -87.1773408 -0.915335E-09  0.183E-04    1.36      69.8  T
  17    -87.1773408 -0.637073E-09  0.150E-04    1.36      85.4  T
  18    -87.1773408 -0.421963E-09  0.484E-05    1.36     264.6  T
  19    -87.1773408 -0.237605E-10  0.198E-05    1.36     646.9  T
     SCC iter.                  ...        0 min,  0.069 sec
     gradient                   ...        0 min,  0.014 sec
 * total energy  :   -85.9360857 Eh     change       -0.9969468E-02 Eh
   gradient norm :     0.4485014 Eh/α   predicted    -0.5248786E-01 ( 426.49%)
   displ. norm   :     0.5565836 α      lambda       -0.1442716E+00
   maximum displ.:     0.2883007 α      in ANC's #113, #72, #127, ...

........................................................................
.............................. CYCLE    4 ..............................
........................................................................
   1    -87.1542292 -0.871542E+02  0.835E-01    1.99       0.0  T
   2    -87.1569748 -0.274560E-02  0.686E-01    1.98       1.0  T
   3    -87.1581542 -0.117936E-02  0.292E-01    1.98       1.0  T
   4    -87.1558081  0.234613E-02  0.294E-01    2.01       1.0  T
   5    -87.1578498 -0.204171E-02  0.157E-01    1.95       1.0  T
   6    -87.1584929 -0.643127E-03  0.541E-02    1.97       1.0  T
   7    -87.1585081 -0.151759E-04  0.291E-02    1.97       1.0  T
   8    -87.1585125 -0.442882E-05  0.250E-02    1.97       1.0  T
   9    -87.1585160 -0.350879E-05  0.214E-02    1.98       1.0  T
  10    -87.1585257 -0.971421E-05  0.100E-02    1.97       1.3  T
  11    -87.1585280 -0.225472E-05  0.501E-03    1.97       2.6  T
  12    -87.1585284 -0.386699E-06  0.281E-03    1.97       4.6  T
  13    -87.1585285 -0.122154E-06  0.217E-03    1.97       5.9  T
  14    -87.1585286 -0.121021E-06  0.112E-03    1.97      11.5  T
  15    -87.1585287 -0.285955E-07  0.652E-04    1.97      19.6  T
  16    -87.1585287 -0.783172E-08  0.508E-04    1.97      25.2  T
  17    -87.1585287 -0.345187E-08  0.186E-04    1.97      68.9  T
  18    -87.1585287 -0.542599E-09  0.901E-05    1.97     142.1  T
  19    -87.1585287 -0.697327E-10  0.457E-05    1.97     280.4  T
  20    -87.1585287 -0.221263E-10  0.226E-05    1.97     567.5  T
     SCC iter.                  ...        0 min,  0.087 sec
     gradient                   ...        0 min,  0.014 sec
 * total energy  :   -85.4230038 Eh     change        0.5130819E+00 Eh
   gradient norm :     2.4879872 Eh/α   predicted    -0.9448260E-01 (-118.41%)
   displ. norm   :     0.3848876 α      lambda       -0.9370362E+00
   maximum displ.:     0.2024189 α      in ANC's #113, #127, #129, ...

........................................................................
.............................. CYCLE    5 ..............................
........................................................................
   1    -87.1570000 -0.871570E+02  0.593E-01    1.49       0.0  T
   2    -87.1551350  0.186503E-02  0.595E-01    1.44       1.0  T
   3    -87.1557712 -0.636257E-03  0.376E-01    1.54       1.0  T
   4    -87.1584936 -0.272242E-02  0.242E-01    1.47       1.0  T
   5    -87.1593064 -0.812722E-03  0.707E-02    1.48       1.0  T
   6    -87.1593847 -0.783353E-04  0.388E-02    1.50       1.0  T
   7    -87.1594252 -0.405196E-04  0.141E-02    1.49       1.0  T
   8    -87.1594289 -0.367223E-05  0.773E-03    1.49       1.7  T
   9    -87.1594286  0.247349E-06  0.758E-03    1.49       1.7  T
  10    -87.1594299 -0.126842E-05  0.497E-03    1.49       2.6  T
  11    -87.1594301 -0.211052E-06  0.339E-03    1.49       3.8  T
  12    -87.1594305 -0.324919E-06  0.164E-03    1.49       7.8  T
  13    -87.1594305 -0.977095E-07  0.819E-04    1.49      15.6  T
  14    -87.1594306 -0.167994E-07  0.583E-04    1.49      21.9  T
  15    -87.1594306 -0.667673E-08  0.264E-04    1.49      48.5  T
  16    -87.1594306 -0.856332E-09  0.223E-04    1.49      57.4  T
  17    -87.1594306 -0.987441E-09  0.109E-04    1.49     117.0  T
  18    -87.1594306 -0.164547E-09  0.423E-05    1.49     302.8  T
  19    -87.1594306 -0.182325E-10  0.182E-05    1.49     705.2  T
     SCC iter.                  ...        0 min,  0.080 sec
     gradient                   ...        0 min,  0.014 sec
 * total energy  :   -85.9170450 Eh     change       -0.4940411E+00 Eh
   gradient norm :     0.4142714 Eh/α   predicted    -0.5379233E+00 (   8.88%)
   displ. norm   :     0.8572518 α      lambda       -0.3249090E+00
   maximum displ.:     0.6453812 α      in ANC's #72, #73, #46, ...

........................................................................
.............................. CYCLE    6 ..............................
........................................................................
   1    -87.1264849 -0.871265E+02  0.164E+00    1.24       0.0  T
   2    -87.0685582  0.579267E-01  0.126E+00    1.54       1.0  T
   3    -87.0105287  0.580295E-01  0.235E+00    1.20       1.0  T
   4    -87.1420687 -0.131540E+00  0.397E-01    1.45       1.0  T
   5    -87.1444430 -0.237424E-02  0.227E-01    1.42       1.0  T
   6    -87.1451419 -0.698944E-03  0.139E-01    1.45       1.0  T
   7    -87.1452719 -0.129937E-03  0.844E-02    1.46       1.0  T
   8    -87.1453503 -0.783997E-04  0.617E-02    1.45       1.0  T
   9    -87.1454151 -0.648007E-04  0.295E-02    1.46       1.0  T
  10    -87.1454249 -0.982007E-05  0.153E-02    1.46       1.0  T
  11    -87.1454278 -0.291925E-05  0.963E-03    1.46       1.3  T
  12    -87.1454289 -0.115835E-05  0.672E-03    1.46       1.9  T
  13    -87.1454295 -0.584077E-06  0.508E-03    1.46       2.5  T
  14    -87.1454303 -0.765263E-06  0.181E-03    1.46       7.1  T
  15    -87.1454304 -0.684304E-07  0.865E-04    1.46      14.8  T
  16    -87.1454304 -0.107910E-07  0.439E-04    1.46      29.2  T
  17    -87.1454304 -0.570580E-09  0.304E-04    1.46      42.1  T
  18    -87.1454304 -0.817067E-09  0.120E-04    1.46     106.9  T
  19    -87.1454304 -0.192159E-09  0.793E-05    1.46     161.5  T
  20    -87.1454304 -0.156007E-09  0.413E-05    1.46     309.9  T
  21    -87.1454304 -0.190425E-10  0.260E-05    1.46     493.0  T
     SCC iter.                  ...        0 min,  0.090 sec
     gradient                   ...        0 min,  0.014 sec
 * total energy  :   -85.6167577 Eh     change        0.3002872E+00 Eh
   gradient norm :     1.1793935 Eh/α   predicted    -0.2818392E+00 (-193.86%)
   displ. norm   :     0.4737444 α      lambda       -0.5458125E+00
   maximum displ.:     0.3183522 α      in ANC's #72, #46, #139, ...

........................................................................
.............................. CYCLE    7 ..............................
........................................................................
   1    -87.1600832 -0.871601E+02  0.108E+00    1.65       0.0  T
   2    -87.1305461  0.295371E-01  0.906E-01    1.36       1.0  T
   3    -87.1174068  0.131393E-01  0.138E+00    1.70       1.0  T
   4    -87.1677379 -0.503310E-01  0.235E-01    1.50       1.0  T
   5    -87.1681927 -0.454814E-03  0.164E-01    1.53       1.0  T
   6    -87.1686515 -0.458780E-03  0.695E-02    1.51       1.0  T
   7    -87.1686524 -0.908798E-06  0.486E-02    1.50       1.0  T
   8    -87.1686845 -0.321460E-04  0.413E-02    1.51       1.0  T
   9    -87.1687046 -0.200830E-04  0.241E-02    1.51       1.0  T
  10    -87.1687188 -0.141535E-04  0.985E-03    1.50       1.3  T
  11    -87.1687197 -0.910927E-06  0.464E-03    1.50       2.8  T
  12    -87.1687199 -0.219499E-06  0.243E-03    1.50       5.3  T
  13    -87.1687199 -0.588624E-07  0.189E-03    1.50       6.8  T
  14    -87.1687200 -0.628444E-07  0.145E-03    1.50       8.9  T
  15    -87.1687201 -0.625644E-07  0.651E-04    1.50      19.7  T
  16    -87.1687201 -0.566833E-08  0.303E-04    1.50      42.2  T
  17    -87.1687201 -0.155832E-08  0.104E-04    1.50     123.6  T
  18    -87.1687201 -0.205617E-09  0.678E-05    1.50     189.0  T
  19    -87.1687201 -0.604246E-10  0.390E-05    1.50     328.4  T
  20    -87.1687201 -0.259490E-10  0.224E-05    1.50     571.3  T
     SCC iter.                  ...        0 min,  0.085 sec
     gradient                   ...        0 min,  0.014 sec
 * total energy  :   -85.9158527 Eh     change       -0.2990949E+00 Eh
   gradient norm :     0.4861615 Eh/α   predicted    -0.3341557E+00 (  11.72%)
   displ. norm   :     0.7673960 α      lambda       -0.3447998E+00
   maximum displ.:     0.4743077 α      in ANC's #72, #51, #127, ...

........................................................................
.............................. CYCLE    8 ..............................
........................................................................
   1    -87.1299979 -0.871300E+02  0.104E+00    1.45       0.0  T
   2    -87.1309576 -0.959694E-03  0.933E-01    1.40       1.0  T
   3    -87.1327548 -0.179719E-02  0.292E-01    1.44       1.0  T
   4    -87.1232918  0.946300E-02  0.506E-01    1.35       1.0  T
   5    -87.1318567 -0.856486E-02  0.259E-01    1.45       1.0  T
   6    -87.1334010 -0.154432E-02  0.958E-02    1.43       1.0  T
   7    -87.1335271 -0.126099E-03  0.556E-02    1.42       1.0  T
   8    -87.1334995  0.275500E-04  0.581E-02    1.42       1.0  T
   9    -87.1335264 -0.268844E-04  0.444E-02    1.42       1.0  T
  10    -87.1335948 -0.683364E-04  0.966E-03    1.42       1.3  T
  11    -87.1335955 -0.786574E-06  0.586E-03    1.42       2.2  T
  12    -87.1335958 -0.265278E-06  0.378E-03    1.42       3.4  T
  13    -87.1335960 -0.229346E-06  0.251E-03    1.42       5.1  T
  14    -87.1335961 -0.102890E-06  0.156E-03    1.42       8.2  T
  15    -87.1335962 -0.474267E-07  0.113E-03    1.42      11.3  T
  16    -87.1335962 -0.194818E-07  0.861E-04    1.42      14.9  T
  17    -87.1335962 -0.104881E-07  0.229E-04    1.42      55.8  T
  18    -87.1335962 -0.218648E-09  0.151E-04    1.42      84.7  T
  19    -87.1335962 -0.309498E-09  0.638E-05    1.42     200.6  T
  20    -87.1335962 -0.410267E-10  0.258E-05    1.42     497.2  T
  21    -87.1335962 -0.586908E-11  0.105E-05    1.42    1218.2  T
     SCC iter.                  ...        0 min,  0.089 sec
     gradient                   ...        0 min,  0.014 sec
 * total energy  :   -85.5610434 Eh     change        0.3548092E+00 Eh
   gradient norm :     1.7094147 Eh/α   predicted    -0.2739256E+00 (-177.20%)
   displ. norm   :     0.4271128 α      lambda       -0.6580657E+00
   maximum displ.:     0.2419478 α      in ANC's #72, #127, #118, ...

........................................................................
.............................. CYCLE    9 ..............................
........................................................................
   1    -87.1607063 -0.871607E+02  0.483E-01    1.58       0.0  T
   2    -87.1606433  0.629941E-04  0.431E-01    1.57       1.0  T
   3    -87.1607897 -0.146455E-03  0.239E-01    1.60       1.0  T
   4    -87.1574851  0.330469E-02  0.334E-01    1.53       1.0  T
   5    -87.1613680 -0.388298E-02  0.948E-02    1.59       1.0  T
   6    -87.1614558 -0.877666E-04  0.452E-02    1.58       1.0  T
   7    -87.1614857 -0.298917E-04  0.249E-02    1.59       1.0  T
   8    -87.1614912 -0.545751E-05  0.212E-02    1.59       1.0  T
   9    -87.1614859  0.523621E-05  0.195E-02    1.59       1.0  T
  10    -87.1614989 -0.130002E-04  0.366E-03    1.59       3.5  T
  11    -87.1614990 -0.132727E-06  0.302E-03    1.59       4.2  T
  12    -87.1614991 -0.653475E-07  0.115E-03    1.59      11.1  T
  13    -87.1614991 -0.182908E-07  0.811E-04    1.59      15.8  T
  14    -87.1614991 -0.741075E-08  0.305E-04    1.59      42.0  T
  15    -87.1614991 -0.975390E-09  0.189E-04    1.59      67.9  T
  16    -87.1614991 -0.426496E-09  0.150E-04    1.59      85.5  T
  17    -87.1614991 -0.533603E-09  0.979E-05    1.59     130.8  T
  18    -87.1614991 -0.225228E-09  0.492E-05    1.59     260.3  T
  19    -87.1614991 -0.352856E-10  0.290E-05    1.59     442.1  T
     SCC iter.                  ...        0 min,  0.082 sec
     gradient                   ...        0 min,  0.014 sec
 * total energy  :   -85.9278348 Eh     change       -0.3667914E+00 Eh
   gradient norm :     0.4016543 Eh/α   predicted    -0.3890573E+00 (   6.07%)
   displ. norm   :     0.7810498 α      lambda       -0.2855594E+00
   maximum displ.:     0.3962902 α      in ANC's #104, #59, #119, ...

........................................................................
.............................. CYCLE   10 ..............................
........................................................................
   1    -87.1414535 -0.871415E+02  0.845E-01    1.53       0.0  T
   2    -87.1200692  0.213843E-01  0.119E+00    1.37       1.0  T
   3    -87.1387926 -0.187234E-01  0.570E-01    1.56       1.0  T
   4    -87.1424214 -0.362881E-02  0.378E-01    1.44       1.0  T
   5    -87.1454079 -0.298653E-02  0.134E-01    1.49       1.0  T
   6    -87.1455181 -0.110165E-03  0.450E-02    1.49       1.0  T
   7    -87.1455408 -0.226927E-04  0.367E-02    1.48       1.0  T
   8    -87.1455700 -0.292606E-04  0.214E-02    1.49       1.0  T
   9    -87.1455821 -0.121264E-04  0.122E-02    1.49       1.0  T
  10    -87.1455857 -0.355325E-05  0.876E-03    1.49       1.5  T
  11    -87.1455880 -0.232271E-05  0.397E-03    1.49       3.2  T
  12    -87.1455882 -0.224277E-06  0.333E-03    1.49       3.8  T
  13    -87.1455884 -0.118607E-06  0.154E-03    1.49       8.3  T
  14    -87.1455884 -0.278739E-07  0.930E-04    1.49      13.8  T
  15    -87.1455884 -0.629572E-08  0.609E-04    1.49      21.0  T
  16    -87.1455884 -0.498096E-08  0.381E-04    1.49      33.6  T
  17    -87.1455884 -0.433565E-08  0.127E-04    1.49     100.6  T
  18    -87.1455884 -0.185295E-09  0.510E-05    1.49     251.2  T
  19    -87.1455884 -0.143956E-10  0.302E-05    1.49     424.1  T
  20    -87.1455884 -0.115818E-10  0.117E-05    1.49    1096.9  T
     SCC iter.                  ...        0 min,  0.089 sec
     gradient                   ...        0 min,  0.014 sec
 * total energy  :   -85.4676579 Eh     change        0.4601769E+00 Eh
   gradient norm :     1.5411765 Eh/α   predicted    -0.2298810E+00 (-149.95%)
   displ. norm   :     0.4681772 α      lambda       -0.7087148E+00
   maximum displ.:     0.3362141 α      in ANC's #104, #59, #119, ...

........................................................................
.............................. CYCLE   11 ..............................
........................................................................
   1    -87.1608148 -0.871608E+02  0.562E-01    1.41       0.0  T
   2    -87.1564088  0.440593E-02  0.693E-01    1.49       1.0  T
   3    -87.1602110 -0.380214E-02  0.333E-01    1.41       1.0  T
   4    -87.1564199  0.379112E-02  0.441E-01    1.50       1.0  T
   5    -87.1620758 -0.565592E-02  0.667E-02    1.45       1.0  T
   6    -87.1620551  0.206372E-04  0.405E-02    1.44       1.0  T
   7    -87.1620967 -0.415331E-04  0.182E-02    1.45       1.0  T
   8    -87.1621054 -0.875463E-05  0.640E-03    1.44       2.0  T
   9    -87.1621057 -0.267692E-06  0.371E-03    1.44       3.4  T
  10    -87.1621059 -0.176515E-06  0.200E-03    1.44       6.4  T
  11    -87.1621059 -0.567741E-07  0.157E-03    1.44       8.2  T
  12    -87.1621060 -0.336421E-07  0.991E-04    1.44      12.9  T
  13    -87.1621060 -0.147752E-07  0.758E-04    1.44      16.9  T
  14    -87.1621060 -0.160985E-07  0.292E-04    1.44      43.9  T
  15    -87.1621060 -0.111707E-08  0.206E-04    1.44      62.2  T
  16    -87.1621060 -0.601702E-09  0.138E-04    1.44      93.1  T
  17    -87.1621060 -0.202320E-09  0.131E-04    1.44      97.4  T
  18    -87.1621060 -0.308049E-09  0.554E-05    1.44     231.3  T
  19    -87.1621060 -0.441815E-10  0.106E-05    1.44    1202.7  T
  20    -87.1621060 -0.179057E-11  0.557E-06    1.44    2298.8  T
     SCC iter.                  ...        0 min,  0.085 sec
     gradient                   ...        0 min,  0.014 sec
 * total energy  :   -85.9018876 Eh     change       -0.4342297E+00 Eh
   gradient norm :     0.5218354 Eh/α   predicted    -0.4320289E+00 (  -0.51%)
   displ. norm   :     0.7949293 α      lambda       -0.3498572E+00
   maximum displ.:     0.2613208 α      in ANC's #51, #72, #70, ...

........................................................................
.............................. CYCLE   12 ..............................
........................................................................
   1    -87.1313297 -0.871313E+02  0.805E-01    1.55       0.0  T
   2    -87.1012593  0.300704E-01  0.879E-01    1.74       1.0  T
   3    -87.1226127 -0.213534E-01  0.895E-01    1.55       1.0  T
   4    -87.1399008 -0.172881E-01  0.204E-01    1.64       1.0  T
   5    -87.1400081 -0.107342E-03  0.892E-02    1.66       1.0  T
   6    -87.1401026 -0.944782E-04  0.666E-02    1.66       1.0  T
   7    -87.1401268 -0.241903E-04  0.437E-02    1.66       1.0  T
   8    -87.1401513 -0.244676E-04  0.316E-02    1.66       1.0  T
   9    -87.1401556 -0.431945E-05  0.294E-02    1.66       1.0  T
  10    -87.1401800 -0.243956E-04  0.124E-02    1.66       1.0  T
  11    -87.1401833 -0.333213E-05  0.731E-03    1.66       1.8  T
  12    -87.1401838 -0.504804E-06  0.593E-03    1.66       2.2  T
  13    -87.1401843 -0.517024E-06  0.386E-03    1.66       3.3  T
  14    -87.1401846 -0.223414E-06  0.253E-03    1.66       5.1  T
  15    -87.1401847 -0.856066E-07  0.904E-04    1.66      14.2  T
  16    -87.1401847 -0.550160E-08  0.648E-04    1.66      19.8  T
  17    -87.1401847 -0.562991E-08  0.178E-04    1.66      72.1  T
  18    -87.1401847 -0.302947E-09  0.714E-05    1.66     179.3  T
  19    -87.1401847 -0.943743E-10  0.282E-05    1.66     453.8  T
  20    -87.1401847 -0.140545E-10  0.145E-05    1.66     885.4  T
     SCC iter.                  ...        0 min,  0.086 sec
     gradient                   ...        0 min,  0.014 sec
 * total energy  :   -85.6672553 Eh     change        0.2346323E+00 Eh
   gradient norm :     1.1870880 Eh/α   predicted    -0.2854684E+00 (-221.67%)
   displ. norm   :     0.4466733 α      lambda       -0.5091500E+00
   maximum displ.:     0.1651413 α      in ANC's #153, #72, #119, ...

........................................................................
.............................. CYCLE   13 ..............................
........................................................................
   1    -87.1592219 -0.871592E+02  0.538E-01    1.68       0.0  T
   2    -87.1564453  0.277658E-02  0.396E-01    1.61       1.0  T
   3    -87.1528686  0.357671E-02  0.489E-01    1.73       1.0  T
   4    -87.1607030 -0.783441E-02  0.198E-01    1.64       1.0  T
   5    -87.1610543 -0.351324E-03  0.105E-01    1.65       1.0  T
   6    -87.1611021 -0.477629E-04  0.370E-02    1.65       1.0  T
   7    -87.1611104 -0.834922E-05  0.259E-02    1.65       1.0  T
   8    -87.1611140 -0.352115E-05  0.229E-02    1.65       1.0  T
   9    -87.1611189 -0.496951E-05  0.157E-02    1.65       1.0  T
  10    -87.1611251 -0.613016E-05  0.585E-03    1.65       2.2  T
  11    -87.1611255 -0.453361E-06  0.332E-03    1.65       3.9  T
  12    -87.1611255 -0.247277E-07  0.296E-03    1.65       4.3  T
  13    -87.1611257 -0.170627E-06  0.170E-03    1.65       7.5  T
  14    -87.1611258 -0.530427E-07  0.119E-03    1.65      10.8  T
  15    -87.1611258 -0.233653E-07  0.627E-04    1.65      20.4  T
  16    -87.1611258 -0.472889E-08  0.342E-04    1.65      37.4  T
  17    -87.1611258 -0.159612E-08  0.157E-04    1.65      81.3  T
  18    -87.1611258 -0.234522E-09  0.470E-05    1.65     272.4  T
  19    -87.1611258 -0.376588E-11  0.406E-05    1.65     315.0  T
     SCC iter.                  ...        0 min,  0.080 sec
     gradient                   ...        0 min,  0.014 sec
 * total energy  :   -85.9197478 Eh     change       -0.2524925E+00 Eh
   gradient norm :     0.5167225 Eh/α   predicted    -0.3053671E+00 (  20.94%)
   displ. norm   :     0.7395823 α      lambda       -0.3397148E+00
   maximum displ.:     0.2536283 α      in ANC's #72, #51, #119, ...

........................................................................
.............................. CYCLE   14 ..............................
........................................................................
   1    -87.1404785 -0.871405E+02  0.909E-01    1.42       0.0  T
   2    -87.0517968  0.886816E-01  0.155E+00    1.01       1.0  T
   3    -87.1530561 -0.101259E+00  0.589E-01    1.29       1.0  T
   4    -87.1520513  0.100478E-02  0.327E-01    1.32       1.0  T
   5    -87.1540496 -0.199828E-02  0.243E-01    1.27       1.0  T
   6    -87.1545311 -0.481537E-03  0.889E-02    1.26       1.0  T
   7    -87.1545869 -0.558231E-04  0.384E-02    1.25       1.0  T
   8    -87.1546109 -0.239625E-04  0.281E-02    1.26       1.0  T
   9    -87.1546137 -0.281034E-05  0.264E-02    1.26       1.0  T
  10    -87.1546283 -0.145639E-04  0.128E-02    1.26       1.0  T
  11    -87.1546303 -0.200457E-05  0.686E-03    1.26       1.9  T
  12    -87.1546311 -0.857274E-06  0.477E-03    1.26       2.7  T
  13    -87.1546316 -0.449213E-06  0.281E-03    1.26       4.6  T
  14    -87.1546316 -0.645691E-07  0.232E-03    1.26       5.5  T
  15    -87.1546318 -0.125699E-06  0.941E-04    1.26      13.6  T
  16    -87.1546318 -0.158976E-07  0.471E-04    1.26      27.2  T
  17    -87.1546318 -0.415069E-08  0.247E-04    1.26      51.8  T
  18    -87.1546318 -0.854925E-09  0.144E-04    1.26      88.6  T
  19    -87.1546318 -0.275307E-09  0.541E-05    1.26     236.6  T
  20    -87.1546318 -0.310081E-10  0.284E-05    1.26     451.4  T
  21    -87.1546318 -0.741807E-11  0.137E-05    1.26     936.9  T
     SCC iter.                  ...        0 min,  0.088 sec
     gradient                   ...        0 min,  0.014 sec
 * total energy  :   -85.5571528 Eh     change        0.3625950E+00 Eh
   gradient norm :     1.6383947 Eh/α   predicted    -0.2627663E+00 (-172.47%)
   displ. norm   :     0.4273756 α      lambda       -0.6580030E+00
   maximum displ.:     0.1784549 α      in ANC's #139, #119, #72, ...

........................................................................
.............................. CYCLE   15 ..............................
........................................................................
   1    -87.1608627 -0.871609E+02  0.596E-01    1.36       0.0  T
   2    -87.1393045  0.215582E-01  0.796E-01    1.56       1.0  T
   3    -87.1587153 -0.194108E-01  0.582E-01    1.38       1.0  T
   4    -87.1648279 -0.611266E-02  0.164E-01    1.43       1.0  T
   5    -87.1647532  0.747162E-04  0.113E-01    1.44       1.0  T
   6    -87.1648848 -0.131619E-03  0.494E-02    1.45       1.0  T
   7    -87.1649169 -0.320968E-04  0.210E-02    1.45       1.0  T
   8    -87.1649226 -0.561998E-05  0.125E-02    1.45       1.0  T
   9    -87.1649202  0.231159E-05  0.117E-02    1.45       1.1  T
  10    -87.1649253 -0.504719E-05  0.467E-03    1.45       2.7  T
  11    -87.1649258 -0.517948E-06  0.249E-03    1.45       5.2  T
  12    -87.1649259 -0.520402E-07  0.183E-03    1.45       7.0  T
  13    -87.1649259 -0.437151E-07  0.945E-04    1.45      13.5  T
  14    -87.1649259 -0.156058E-07  0.612E-04    1.45      20.9  T
  15    -87.1649259 -0.842593E-08  0.371E-04    1.45      34.5  T
  16    -87.1649259 -0.299383E-08  0.256E-04    1.45      50.1  T
  17    -87.1649259 -0.177012E-08  0.989E-05    1.45     129.5  T
  18    -87.1649259 -0.168868E-09  0.392E-05    1.45     327.0  T
  19    -87.1649259 -0.210747E-10  0.216E-05    1.45     593.3  T
     SCC iter.                  ...        0 min,  0.079 sec
     gradient                   ...        0 min,  0.014 sec
 * total energy  :   -85.9407880 Eh     change       -0.3836352E+00 Eh
   gradient norm :     0.3221206 Eh/α   predicted    -0.3890937E+00 (   1.42%)
   displ. norm   :     0.5469570 α      lambda       -0.9475829E-01
   maximum displ.:     0.1993623 α      in ANC's #35, #55, #93, ...

........................................................................
.............................. CYCLE   16 ..............................
........................................................................
   1    -87.1596445 -0.871596E+02  0.502E-01    1.69       0.0  T
   2    -87.1483662  0.112783E-01  0.649E-01    1.79       1.0  T
   3    -87.1591598 -0.107937E-01  0.380E-01    1.67       1.0  T
   4    -87.1621381 -0.297829E-02  0.192E-01    1.72       1.0  T
   5    -87.1622887 -0.150593E-03  0.807E-02    1.72       1.0  T
   6    -87.1622596  0.291254E-04  0.480E-02    1.72       1.0  T
   7    -87.1623204 -0.608458E-04  0.251E-02    1.71       1.0  T
   8    -87.1623324 -0.119554E-04  0.188E-02    1.72       1.0  T
   9    -87.1623370 -0.465048E-05  0.150E-02    1.72       1.0  T
  10    -87.1623421 -0.505510E-05  0.849E-03    1.72       1.5  T
  11    -87.1623430 -0.863545E-06  0.476E-03    1.72       2.7  T
  12    -87.1623432 -0.234609E-06  0.228E-03    1.72       5.6  T
  13    -87.1623433 -0.941537E-07  0.181E-03    1.72       7.1  T
  14    -87.1623434 -0.651489E-07  0.893E-04    1.72      14.3  T
  15    -87.1623434 -0.139866E-07  0.585E-04    1.72      21.9  T
  16    -87.1623434 -0.552353E-08  0.311E-04    1.72      41.1  T
  17    -87.1623434 -0.150553E-08  0.176E-04    1.72      72.7  T
  18    -87.1623434 -0.374413E-09  0.675E-05    1.72     189.6  T
  19    -87.1623434 -0.550244E-10  0.198E-05    1.72     645.6  T
  20    -87.1623434 -0.481748E-11  0.101E-05    1.72    1263.8  T
     SCC iter.                  ...        0 min,  0.084 sec
     gradient                   ...        0 min,  0.014 sec
 * total energy  :   -85.8395954 Eh     change        0.1011926E+00 Eh
   gradient norm :     0.6837435 Eh/α   predicted    -0.6155323E-01 (-160.83%)
   displ. norm   :     0.4245253 α      lambda       -0.2336140E+00
   maximum displ.:     0.2147565 α      in ANC's #55, #70, #31, ...

........................................................................
.............................. CYCLE   17 ..............................
........................................................................
   1    -87.1743557 -0.871744E+02  0.352E-01    1.57       0.0  T
   2    -87.1739690  0.386661E-03  0.294E-01    1.57       1.0  T
   3    -87.1739869 -0.179123E-04  0.207E-01    1.61       1.0  T
   4    -87.1732278  0.759095E-03  0.244E-01    1.55       1.0  T
   5    -87.1746513 -0.142342E-02  0.847E-02    1.58       1.0  T
   6    -87.1747286 -0.773491E-04  0.547E-02    1.58       1.0  T
   7    -87.1748029 -0.742833E-04  0.149E-02    1.59       1.0  T
   8    -87.1748062 -0.328146E-05  0.115E-02    1.59       1.1  T
   9    -87.1748077 -0.155776E-05  0.930E-03    1.59       1.4  T
  10    -87.1748091 -0.132627E-05  0.374E-03    1.59       3.4  T
  11    -87.1748093 -0.186041E-06  0.255E-03    1.59       5.0  T
  12    -87.1748094 -0.157748E-06  0.131E-03    1.59       9.7  T
  13    -87.1748094 -0.235573E-07  0.106E-03    1.59      12.1  T
  14    -87.1748095 -0.197938E-07  0.834E-04    1.59      15.4  T
  15    -87.1748095 -0.104634E-07  0.341E-04    1.59      37.6  T
  16    -87.1748095 -0.121186E-08  0.182E-04    1.59      70.3  T
  17    -87.1748095 -0.662197E-09  0.797E-05    1.59     160.7  T
  18    -87.1748095 -0.133980E-09  0.225E-05    1.59     567.9  T
  19    -87.1748095 -0.278533E-11  0.141E-05    1.59     908.5  T
     SCC iter.                  ...        0 min,  0.080 sec
     gradient                   ...        0 min,  0.014 sec
 * total energy  :   -85.9404690 Eh     change       -0.1008736E+00 Eh
   gradient norm :     0.3305831 Eh/α   predicted    -0.1378581E+00 (  36.66%)
   displ. norm   :     0.7534697 α      lambda       -0.1604734E+00
   maximum displ.:     0.3669820 α      in ANC's #35, #98, #31, ...

........................................................................
.............................. CYCLE   18 ..............................
........................................................................
   1    -87.1519167 -0.871519E+02  0.751E-01    1.33       0.0  T
   2    -87.1181874  0.337292E-01  0.126E+00    1.16       1.0  T
   3    -87.1475526 -0.293652E-01  0.651E-01    1.38       1.0  T
   4    -87.1560059 -0.845331E-02  0.274E-01    1.30       1.0  T
   5    -87.1557135  0.292441E-03  0.199E-01    1.28       1.0  T
   6    -87.1559738 -0.260270E-03  0.131E-01    1.29       1.0  T
   7    -87.1564267 -0.452913E-03  0.239E-02    1.31       1.0  T
   8    -87.1564301 -0.344312E-05  0.227E-02    1.31       1.0  T
   9    -87.1564377 -0.758948E-05  0.119E-02    1.31       1.1  T
  10    -87.1564392 -0.149593E-05  0.889E-03    1.31       1.4  T
  11    -87.1564410 -0.175809E-05  0.446E-03    1.31       2.9  T
  12    -87.1564414 -0.466158E-06  0.218E-03    1.31       5.9  T
  13    -87.1564415 -0.505920E-07  0.175E-03    1.31       7.3  T
  14    -87.1564415 -0.514789E-07  0.104E-03    1.31      12.3  T
  15    -87.1564416 -0.175161E-07  0.633E-04    1.31      20.2  T
  16    -87.1564416 -0.792190E-08  0.320E-04    1.31      40.0  T
  17    -87.1564416 -0.161079E-08  0.195E-04    1.31      65.8  T
  18    -87.1564416 -0.464524E-09  0.857E-05    1.31     149.4  T
  19    -87.1564416 -0.123464E-09  0.396E-05    1.31     323.2  T
  20    -87.1564416 -0.392646E-10  0.212E-05    1.31     603.3  T
     SCC iter.                  ...        0 min,  0.084 sec
     gradient                   ...        0 min,  0.014 sec
 * total energy  :   -85.8198259 Eh     change        0.1206431E+00 Eh
   gradient norm :     0.7507974 Eh/α   predicted    -0.1257884E+00 (-204.26%)
   displ. norm   :     0.4035796 α      lambda       -0.2262303E+00
   maximum displ.:     0.1496340 α      in ANC's #121, #98, #72, ...

........................................................................
.............................. CYCLE   19 ..............................
........................................................................
   1    -87.1536737 -0.871537E+02  0.609E-01    1.61       0.0  T
   2    -87.1464037  0.727008E-02  0.627E-01    1.67       1.0  T
   3    -87.1484223 -0.201862E-02  0.516E-01    1.53       1.0  T
   4    -87.1557317 -0.730940E-02  0.150E-01    1.59       1.0  T
   5    -87.1551707  0.561026E-03  0.158E-01    1.62       1.0  T
   6    -87.1558851 -0.714492E-03  0.645E-02    1.60       1.0  T
   7    -87.1559411 -0.559605E-04  0.207E-02    1.60       1.0  T
   8    -87.1559448 -0.371004E-05  0.167E-02    1.60       1.0  T
   9    -87.1559479 -0.309365E-05  0.133E-02    1.60       1.0  T
  10    -87.1559479  0.283911E-07  0.865E-03    1.60       1.5  T
  11    -87.1559500 -0.212079E-05  0.249E-03    1.60       5.1  T
  12    -87.1559500 -0.368478E-07  0.135E-03    1.60       9.5  T
  13    -87.1559501 -0.267719E-07  0.119E-03    1.60      10.8  T
  14    -87.1559501 -0.196957E-07  0.395E-04    1.60      32.4  T
  15    -87.1559501 -0.190357E-08  0.276E-04    1.60      46.4  T
  16    -87.1559501 -0.110025E-08  0.213E-04    1.60      60.2  T
  17    -87.1559501 -0.127838E-08  0.152E-04    1.60      84.4  T
  18    -87.1559501 -0.440963E-09  0.634E-05    1.60     202.1  T
  19    -87.1559501 -0.426326E-10  0.381E-05    1.60     336.2  T
  20    -87.1559501 -0.214442E-10  0.108E-05    1.60    1180.9  T
     SCC iter.                  ...        0 min,  0.083 sec
     gradient                   ...        0 min,  0.014 sec
 * total energy  :   -85.9236342 Eh     change       -0.1038083E+00 Eh
   gradient norm :     0.2921512 Eh/α   predicted    -0.1315390E+00 (  26.71%)
   displ. norm   :     0.6805720 α      lambda       -0.1537834E+00
   maximum displ.:     0.2564434 α      in ANC's #35, #73, #31, ...

........................................................................
.............................. CYCLE   20 ..............................
........................................................................
   1    -87.1653564 -0.871654E+02  0.642E-01    1.35       0.0  T
   2    -87.1636493  0.170710E-02  0.671E-01    1.44       1.0  T
   3    -87.1654746 -0.182524E-02  0.353E-01    1.37       1.0  T
   4    -87.1654647  0.984909E-05  0.311E-01    1.43       1.0  T
   5    -87.1658776 -0.412832E-03  0.259E-01    1.37       1.0  T
   6    -87.1672594 -0.138185E-02  0.118E-01    1.39       1.0  T
   7    -87.1675863 -0.326919E-03  0.374E-02    1.40       1.0  T
   8    -87.1676057 -0.193792E-04  0.302E-02    1.40       1.0  T
   9    -87.1676198 -0.141293E-04  0.172E-02    1.40       1.0  T
  10    -87.1676233 -0.348183E-05  0.135E-02    1.40       1.0  T
  11    -87.1676267 -0.338706E-05  0.700E-03    1.41       1.8  T
  12    -87.1676279 -0.120949E-05  0.314E-03    1.41       4.1  T
  13    -87.1676280 -0.119848E-06  0.273E-03    1.41       4.7  T
  14    -87.1676282 -0.110050E-06  0.188E-03    1.41       6.8  T
  15    -87.1676282 -0.271591E-07  0.117E-03    1.41      11.0  T
  16    -87.1676282 -0.226161E-07  0.559E-04    1.41      22.9  T
  17    -87.1676282 -0.105777E-07  0.202E-04    1.41      63.4  T
  18    -87.1676282 -0.821260E-09  0.110E-04    1.41     116.5  T
  19    -87.1676282 -0.164150E-09  0.516E-05    1.41     248.1  T
  20    -87.1676282 -0.293738E-10  0.298E-05    1.41     430.0  T
  21    -87.1676282 -0.110134E-10  0.246E-05    1.41     521.4  T
     SCC iter.                  ...        0 min,  0.088 sec
     gradient                   ...        0 min,  0.014 sec
 * total energy  :   -85.8813688 Eh     change        0.4226541E-01 Eh
   gradient norm :     0.6715192 Eh/α   predicted    -0.1125063E+00 (-366.19%)
   displ. norm   :     0.3142194 α      lambda       -0.1689502E+00
   maximum displ.:     0.1210407 α      in ANC's #104, #73, #51, ...

........................................................................
.............................. CYCLE   21 ..............................
........................................................................
   1    -87.1662655 -0.871663E+02  0.335E-01    1.51       0.0  T
   2    -87.1650229  0.124261E-02  0.431E-01    1.43       1.0  T
   3    -87.1668144 -0.179158E-02  0.184E-01    1.48       1.0  T
   4    -87.1662502  0.564265E-03  0.193E-01    1.45       1.0  T
   5    -87.1661005  0.149668E-03  0.195E-01    1.49       1.0  T
   6    -87.1670267 -0.926147E-03  0.770E-02    1.47       1.0  T
   7    -87.1671731 -0.146463E-03  0.205E-02    1.47       1.0  T
   8    -87.1671793 -0.612573E-05  0.163E-02    1.47       1.0  T
   9    -87.1671840 -0.478060E-05  0.790E-03    1.47       1.6  T
  10    -87.1671845 -0.423836E-06  0.667E-03    1.47       1.9  T
  11    -87.1671856 -0.110440E-05  0.348E-03    1.47       3.7  T
  12    -87.1671857 -0.169008E-06  0.186E-03    1.47       6.9  T
  13    -87.1671858 -0.416418E-07  0.132E-03    1.47       9.7  T
  14    -87.1671858 -0.331682E-07  0.822E-04    1.47      15.6  T
  15    -87.1671858 -0.924905E-08  0.507E-04    1.47      25.3  T
  16    -87.1671858 -0.572476E-08  0.210E-04    1.47      61.0  T
  17    -87.1671858 -0.838696E-09  0.108E-04    1.47     118.1  T
  18    -87.1671858 -0.194461E-09  0.630E-05    1.47     203.2  T
  19    -87.1671858 -0.580656E-10  0.241E-05    1.47     530.6  T
  20    -87.1671858 -0.628120E-11  0.143E-05    1.47     893.0  T
     SCC iter.                  ...        0 min,  0.084 sec
     gradient                   ...        0 min,  0.014 sec
 * total energy  :   -85.9505417 Eh     change       -0.6917291E-01 Eh
   gradient norm :     0.2338719 Eh/α   predicted    -0.9281563E-01 (  34.18%)
   displ. norm   :     0.6687293 α      lambda       -0.8489623E-01
   maximum displ.:     0.2371513 α      in ANC's #40, #35, #25, ...

........................................................................
.............................. CYCLE   22 ..............................
........................................................................
   1    -87.1632824 -0.871633E+02  0.465E-01    1.57       0.0  T
   2    -87.1585654  0.471706E-02  0.613E-01    1.65       1.0  T
   3    -87.1626757 -0.411032E-02  0.292E-01    1.56       1.0  T
   4    -87.1642712 -0.159550E-02  0.151E-01    1.61       1.0  T
   5    -87.1644862 -0.215047E-03  0.975E-02    1.58       1.0  T
   6    -87.1647407 -0.254496E-03  0.404E-02    1.59       1.0  T
   7    -87.1647618 -0.210737E-04  0.267E-02    1.59       1.0  T
   8    -87.1647753 -0.135554E-04  0.201E-02    1.59       1.0  T
   9    -87.1647858 -0.104157E-04  0.148E-02    1.59       1.0  T
  10    -87.1647897 -0.397335E-05  0.508E-03    1.59       2.5  T
  11    -87.1647899 -0.123956E-06  0.317E-03    1.59       4.0  T
  12    -87.1647902 -0.340877E-06  0.203E-03    1.59       6.3  T
  13    -87.1647903 -0.784902E-07  0.111E-03    1.59      11.6  T
  14    -87.1647903 -0.227322E-07  0.718E-04    1.59      17.8  T
  15    -87.1647903 -0.777104E-08  0.344E-04    1.59      37.2  T
  16    -87.1647903 -0.137680E-08  0.205E-04    1.59      62.4  T
  17    -87.1647903 -0.707402E-09  0.872E-05    1.59     146.8  T
  18    -87.1647903 -0.100101E-09  0.343E-05    1.59     373.2  T
  19    -87.1647903 -0.923706E-11  0.248E-05    1.59     515.8  T
     SCC iter.                  ...        0 min,  0.080 sec
     gradient                   ...        0 min,  0.014 sec
 * total energy  :   -85.8871427 Eh     change        0.6339901E-01 Eh
   gradient norm :     0.4263481 Eh/α   predicted    -0.6143085E-01 (-196.90%)
   displ. norm   :     0.4176518 α      lambda       -0.1395261E+00
   maximum displ.:     0.1837863 α      in ANC's #40, #73, #33, ...

........................................................................
.............................. CYCLE   23 ..............................
........................................................................
   1    -87.1695597 -0.871696E+02  0.267E-01    1.52       0.0  T
   2    -87.1685000  0.105967E-02  0.298E-01    1.48       1.0  T
   3    -87.1690514 -0.551439E-03  0.196E-01    1.53       1.0  T
   4    -87.1698345 -0.783071E-03  0.944E-02    1.50       1.0  T
   5    -87.1699603 -0.125815E-03  0.417E-02    1.51       1.0  T
   6    -87.1699760 -0.157189E-04  0.222E-02    1.51       1.0  T
   7    -87.1699816 -0.560452E-05  0.174E-02    1.51       1.0  T
   8    -87.1699833 -0.163157E-05  0.160E-02    1.51       1.0  T
   9    -87.1699922 -0.895133E-05  0.577E-03    1.51       2.2  T
  10    -87.1699932 -0.974663E-06  0.315E-03    1.51       4.1  T
  11    -87.1699934 -0.194398E-06  0.132E-03    1.51       9.7  T
  12    -87.1699934 -0.240771E-07  0.930E-04    1.51      13.8  T
  13    -87.1699934 -0.137579E-07  0.533E-04    1.51      24.0  T
  14    -87.1699934 -0.418578E-08  0.352E-04    1.51      36.3  T
  15    -87.1699934 -0.142676E-08  0.195E-04    1.51      65.7  T
  16    -87.1699934  0.635367E-10  0.212E-04    1.51      60.5  T
  17    -87.1699934 -0.102195E-08  0.455E-05    1.51     281.1  T
  18    -87.1699934 -0.365930E-10  0.206E-05    1.51     622.9  T
     SCC iter.                  ...        0 min,  0.076 sec
     gradient                   ...        0 min,  0.014 sec
 * total energy  :   -85.9584112 Eh     change       -0.7126848E-01 Eh
   gradient norm :     0.1031255 Eh/α   predicted    -0.8193209E-01 (  14.96%)
   displ. norm   :     0.7444731 α      lambda       -0.5609579E-01
   maximum displ.:     0.3952431 α      in ANC's #31, #35, #33, ...

........................................................................
.............................. CYCLE   24 ..............................
........................................................................
   1    -87.1713414 -0.871713E+02  0.673E-01    1.52       0.0  T
   2    -87.1711197  0.221704E-03  0.651E-01    1.47       1.0  T
   3    -87.1725291 -0.140935E-02  0.214E-01    1.51       1.0  T
   4    -87.1725128  0.162652E-04  0.179E-01    1.48       1.0  T
   5    -87.1727110 -0.198134E-03  0.129E-01    1.51       1.0  T
   6    -87.1732256 -0.514653E-03  0.324E-02    1.50       1.0  T
   7    -87.1732413 -0.157268E-04  0.172E-02    1.49       1.0  T
   8    -87.1732456 -0.427045E-05  0.119E-02    1.49       1.1  T
   9    -87.1732473 -0.163732E-05  0.823E-03    1.50       1.6  T
  10    -87.1732481 -0.845306E-06  0.548E-03    1.49       2.3  T
  11    -87.1732485 -0.374651E-06  0.241E-03    1.50       5.3  T
  12    -87.1732486 -0.132203E-06  0.141E-03    1.50       9.1  T
  13    -87.1732486 -0.383523E-07  0.897E-04    1.50      14.3  T
  14    -87.1732487 -0.167217E-07  0.552E-04    1.50      23.2  T
  15    -87.1732487 -0.422202E-08  0.440E-04    1.50      29.1  T
  16    -87.1732487 -0.435813E-08  0.235E-04    1.50      54.5  T
  17    -87.1732487 -0.100513E-08  0.771E-05    1.50     166.0  T
  18    -87.1732487 -0.767102E-10  0.444E-05    1.50     288.4  T
  19    -87.1732487 -0.191136E-10  0.228E-05    1.50     560.6  T
     SCC iter.                  ...        0 min,  0.081 sec
     gradient                   ...        0 min,  0.014 sec
 * total energy  :   -85.8838478 Eh     change        0.7456333E-01 Eh
   gradient norm :     0.3968199 Eh/α   predicted    -0.4359268E-01 (-158.46%)
   displ. norm   :     0.4095725 α      lambda       -0.1352924E+00
   maximum displ.:     0.2027881 α      in ANC's #35, #40, #31, ...

........................................................................
.............................. CYCLE   25 ..............................
........................................................................
   1    -87.1718990 -0.871719E+02  0.358E-01    1.55       0.0  T
   2    -87.1721053 -0.206306E-03  0.283E-01    1.56       1.0  T
   3    -87.1723372 -0.231917E-03  0.102E-01    1.55       1.0  T
   4    -87.1721227  0.214513E-03  0.111E-01    1.57       1.0  T
   5    -87.1722211 -0.983960E-04  0.658E-02    1.55       1.0  T
   6    -87.1723620 -0.140920E-03  0.183E-02    1.56       1.0  T
   7    -87.1723670 -0.499694E-05  0.152E-02    1.56       1.0  T
   8    -87.1723690 -0.197903E-05  0.111E-02    1.56       1.2  T
   9    -87.1723703 -0.134819E-05  0.657E-03    1.56       1.9  T
  10    -87.1723711 -0.803579E-06  0.470E-03    1.56       2.7  T
  11    -87.1723713 -0.174077E-06  0.200E-03    1.56       6.4  T
  12    -87.1723715 -0.144229E-06  0.113E-03    1.56      11.3  T
  13    -87.1723715 -0.156568E-07  0.849E-04    1.56      15.1  T
  14    -87.1723715 -0.153014E-07  0.522E-04    1.56      24.5  T
  15    -87.1723715 -0.460375E-08  0.365E-04    1.56      35.1  T
  16    -87.1723715 -0.206367E-08  0.230E-04    1.56      55.7  T
  17    -87.1723715 -0.127120E-08  0.698E-05    1.56     183.3  T
  18    -87.1723715 -0.572413E-10  0.410E-05    1.56     312.5  T
  19    -87.1723715 -0.204494E-10  0.190E-05    1.56     675.2  T
     SCC iter.                  ...        0 min,  0.081 sec
     gradient                   ...        0 min,  0.014 sec
 * total energy  :   -85.9595643 Eh     change       -0.7571646E-01 Eh
   gradient norm :     0.0757767 Eh/α   predicted    -0.7899486E-01 (   4.33%)
   displ. norm   :     0.6833655 α      lambda       -0.3568273E-01
   maximum displ.:     0.5825887 α      in ANC's #31, #15, #70, ...

........................................................................
.............................. CYCLE   26 ..............................
........................................................................
   1    -87.1775642 -0.871776E+02  0.745E-01    1.51       0.0  T
   2    -87.1771303  0.433940E-03  0.651E-01    1.44       1.0  T
   3    -87.1782876 -0.115731E-02  0.246E-01    1.52       1.0  T
   4    -87.1795352 -0.124764E-02  0.108E-01    1.48       1.0  T
   5    -87.1796682 -0.133032E-03  0.527E-02    1.49       1.0  T
   6    -87.1797172 -0.489956E-04  0.130E-02    1.48       1.0  T
   7    -87.1797158  0.142868E-05  0.127E-02    1.48       1.0  T
   8    -87.1797191 -0.326789E-05  0.751E-03    1.48       1.7  T
   9    -87.1797186  0.481617E-06  0.732E-03    1.48       1.7  T
  10    -87.1797200 -0.142306E-05  0.502E-03    1.48       2.5  T
  11    -87.1797209 -0.856997E-06  0.209E-03    1.48       6.1  T
  12    -87.1797209 -0.470879E-07  0.115E-03    1.48      11.1  T
  13    -87.1797209 -0.151105E-07  0.783E-04    1.48      16.3  T
  14    -87.1797209 -0.608914E-08  0.421E-04    1.48      30.4  T
  15    -87.1797210 -0.331598E-08  0.318E-04    1.48      40.3  T
  16    -87.1797210 -0.116344E-08  0.166E-04    1.48      76.9  T
  17    -87.1797210 -0.372864E-09  0.763E-05    1.48     167.9  T
  18    -87.1797210 -0.102318E-09  0.350E-05    1.48     365.9  T
  19    -87.1797210 -0.116671E-10  0.222E-05    1.48     577.3  T
     SCC iter.                  ...        0 min,  0.081 sec
     gradient                   ...        0 min,  0.014 sec
 * total energy  :   -85.9283815 Eh     change        0.3118275E-01 Eh
   gradient norm :     0.2131587 Eh/α   predicted    -0.2617297E-01 (-183.93%)
   displ. norm   :     0.3999474 α      lambda       -0.6593978E-01
   maximum displ.:     0.3012496 α      in ANC's #31, #40, #35, ...

........................................................................
.............................. CYCLE   27 ..............................
........................................................................
   1    -87.1808479 -0.871808E+02  0.477E-01    1.48       0.0  T
   2    -87.1770732  0.377474E-02  0.538E-01    1.55       1.0  T
   3    -87.1792668 -0.219362E-02  0.352E-01    1.46       1.0  T
   4    -87.1822153 -0.294851E-02  0.590E-02    1.50       1.0  T
   5    -87.1821940  0.213471E-04  0.509E-02    1.50       1.0  T
   6    -87.1822442 -0.502623E-04  0.175E-02    1.50       1.0  T
   7    -87.1822498 -0.557911E-05  0.587E-03    1.50       2.2  T
   8    -87.1822500 -0.172801E-06  0.506E-03    1.50       2.5  T
   9    -87.1822504 -0.429671E-06  0.383E-03    1.50       3.3  T
  10    -87.1822506 -0.164266E-06  0.300E-03    1.50       4.3  T
  11    -87.1822507 -0.171241E-06  0.902E-04    1.50      14.2  T
  12    -87.1822507 -0.137745E-07  0.687E-04    1.50      18.6  T
  13    -87.1822508 -0.139871E-07  0.408E-04    1.50      31.4  T
  14    -87.1822508 -0.199699E-08  0.281E-04    1.50      45.6  T
  15    -87.1822508 -0.178616E-08  0.172E-04    1.50      74.6  T
  16    -87.1822508 -0.621526E-09  0.791E-05    1.50     162.0  T
  17    -87.1822508 -0.142080E-09  0.246E-05    1.50     521.5  T
  18    -87.1822508 -0.729017E-11  0.187E-05    1.50     684.7  T
     SCC iter.                  ...        0 min,  0.076 sec
     gradient                   ...        0 min,  0.014 sec
 * total energy  :   -85.9627751 Eh     change       -0.3439352E-01 Eh
   gradient norm :     0.0759079 Eh/α   predicted    -0.3824389E-01 (  11.20%)
   displ. norm   :     0.5087983 α      lambda       -0.1896675E-01
   maximum displ.:     0.2412286 α      in ANC's #35, #31, #60, ...

........................................................................
.............................. CYCLE   28 ..............................
........................................................................
   1    -87.1626716 -0.871627E+02  0.312E-01    1.61       0.0  T
   2    -87.1615042  0.116736E-02  0.407E-01    1.55       1.0  T
   3    -87.1630031 -0.149891E-02  0.173E-01    1.60       1.0  T
   4    -87.1628334  0.169658E-03  0.156E-01    1.57       1.0  T
   5    -87.1630419 -0.208431E-03  0.125E-01    1.60       1.0  T
   6    -87.1634520 -0.410124E-03  0.513E-02    1.59       1.0  T
   7    -87.1635163 -0.642876E-04  0.131E-02    1.58       1.0  T
   8    -87.1635168 -0.558744E-06  0.114E-02    1.58       1.1  T
   9    -87.1635183 -0.149062E-05  0.781E-03    1.58       1.6  T
  10    -87.1635196 -0.124315E-05  0.336E-03    1.58       3.8  T
  11    -87.1635199 -0.284278E-06  0.210E-03    1.58       6.1  T
  12    -87.1635199 -0.475545E-07  0.126E-03    1.58      10.2  T
  13    -87.1635199 -0.337499E-07  0.822E-04    1.58      15.6  T
  14    -87.1635200 -0.155577E-07  0.499E-04    1.58      25.7  T
  15    -87.1635200 -0.517004E-08  0.407E-04    1.58      31.5  T
  16    -87.1635200 -0.142755E-08  0.199E-04    1.58      64.2  T
  17    -87.1635200 -0.863110E-09  0.797E-05    1.58     160.7  T
  18    -87.1635200 -0.189004E-09  0.334E-05    1.58     383.0  T
  19    -87.1635200 -0.356692E-11  0.238E-05    1.58     538.7  T
     SCC iter.                  ...        0 min,  0.080 sec
     gradient                   ...        0 min,  0.014 sec
 * total energy  :   -85.9488443 Eh     change        0.1393082E-01 Eh
   gradient norm :     0.1695354 Eh/α   predicted    -0.1193839E-01 (-185.70%)
   displ. norm   :     0.3377658 α      lambda       -0.3371151E-01
   maximum displ.:     0.1981716 α      in ANC's #35, #40, #14, ...

........................................................................
.............................. CYCLE   29 ..............................
........................................................................
   1    -87.1712051 -0.871712E+02  0.237E-01    1.54       0.0  T
   2    -87.1705583  0.646766E-03  0.286E-01    1.58       1.0  T
   3    -87.1712051 -0.646784E-03  0.142E-01    1.54       1.0  T
   4    -87.1713621 -0.156972E-03  0.103E-01    1.57       1.0  T
   5    -87.1714409 -0.787901E-04  0.745E-02    1.55       1.0  T
   6    -87.1715824 -0.141526E-03  0.299E-02    1.55       1.0  T
   7    -87.1716015 -0.190797E-04  0.103E-02    1.55       1.2  T
   8    -87.1716020 -0.500386E-06  0.906E-03    1.56       1.4  T
   9    -87.1716031 -0.116160E-05  0.626E-03    1.55       2.0  T
  10    -87.1716040 -0.811329E-06  0.256E-03    1.55       5.0  T
  11    -87.1716041 -0.139273E-06  0.188E-03    1.56       6.8  T
  12    -87.1716042 -0.900375E-07  0.852E-04    1.56      15.0  T
  13    -87.1716042 -0.932508E-08  0.601E-04    1.56      21.3  T
  14    -87.1716042 -0.101355E-07  0.343E-04    1.56      37.4  T
  15    -87.1716042 -0.345210E-09  0.339E-04    1.56      37.8  T
  16    -87.1716042 -0.190803E-08  0.133E-04    1.56      96.5  T
  17    -87.1716042 -0.303743E-09  0.514E-05    1.56     249.1  T
  18    -87.1716042 -0.195399E-10  0.227E-05    1.56     564.8  T
  19    -87.1716042 -0.581224E-11  0.150E-05    1.56     854.5  T
     SCC iter.                  ...        0 min,  0.081 sec
     gradient                   ...        0 min,  0.014 sec
 * total energy  :   -85.9630611 Eh     change       -0.1421689E-01 Eh
   gradient norm :     0.0722626 Eh/α   predicted    -0.1877881E-01 (  32.09%)
   displ. norm   :     0.5910709 α      lambda       -0.2366756E-01
   maximum displ.:     0.2671068 α      in ANC's #31, #40, #33, ...

........................................................................
.............................. CYCLE   30 ..............................
........................................................................
   1    -87.1886792 -0.871887E+02  0.400E-01    1.39       0.0  T
   2    -87.1885347  0.144466E-03  0.428E-01    1.42       1.0  T
   3    -87.1893915 -0.856752E-03  0.167E-01    1.39       1.0  T
   4    -87.1890658  0.325645E-03  0.170E-01    1.42       1.0  T
   5    -87.1892849 -0.219079E-03  0.131E-01    1.39       1.0  T
   6    -87.1897072 -0.422272E-03  0.474E-02    1.40       1.0  T
   7    -87.1897502 -0.430339E-04  0.150E-02    1.40       1.0  T
   8    -87.1897504 -0.251827E-06  0.129E-02    1.41       1.0  T
   9    -87.1897525 -0.204423E-05  0.914E-03    1.40       1.4  T
  10    -87.1897543 -0.176137E-05  0.317E-03    1.40       4.0  T
  11    -87.1897544 -0.156219E-06  0.217E-03    1.40       5.9  T
  12    -87.1897545 -0.842784E-07  0.124E-03    1.40      10.4  T
  13    -87.1897545 -0.223122E-07  0.722E-04    1.40      17.7  T
  14    -87.1897545 -0.808350E-08  0.454E-04    1.40      28.2  T
  15    -87.1897545 -0.151867E-08  0.393E-04    1.40      32.5  T
  16    -87.1897545 -0.432067E-08  0.217E-04    1.40      59.0  T
  17    -87.1897545 -0.100988E-08  0.851E-05    1.40     150.4  T
  18    -87.1897545 -0.509175E-10  0.492E-05    1.40     260.1  T
  19    -87.1897545 -0.641620E-10  0.248E-05    1.40     516.1  T
     SCC iter.                  ...        0 min,  0.081 sec
     gradient                   ...        0 min,  0.014 sec
 * total energy  :   -85.9387941 Eh     change        0.2426703E-01 Eh
   gradient norm :     0.2139544 Eh/α   predicted    -0.1596814E-01 (-165.80%)
   displ. norm   :     0.3477434 α      lambda       -0.4795403E-01
   maximum displ.:     0.1569533 α      in ANC's #40, #31, #33, ...

........................................................................
.............................. CYCLE   31 ..............................
........................................................................
   1    -87.1819767 -0.871820E+02  0.262E-01    1.51       0.0  T
   2    -87.1819830 -0.629545E-05  0.265E-01    1.48       1.0  T
   3    -87.1822865 -0.303464E-03  0.120E-01    1.51       1.0  T
   4    -87.1821664  0.120053E-03  0.117E-01    1.48       1.0  T
   5    -87.1822720 -0.105603E-03  0.843E-02    1.51       1.0  T
   6    -87.1824895 -0.217466E-03  0.224E-02    1.50       1.0  T
   7    -87.1824959 -0.636635E-05  0.977E-03    1.50       1.3  T
   8    -87.1824965 -0.597443E-06  0.760E-03    1.50       1.7  T
   9    -87.1824971 -0.636137E-06  0.531E-03    1.50       2.4  T
  10    -87.1824976 -0.490969E-06  0.260E-03    1.50       4.9  T
  11    -87.1824978 -0.153511E-06  0.159E-03    1.50       8.0  T
  12    -87.1824978 -0.381083E-07  0.800E-04    1.50      16.0  T
  13    -87.1824978 -0.727771E-08  0.563E-04    1.50      22.8  T
  14    -87.1824978 -0.469733E-08  0.372E-04    1.50      34.4  T
  15    -87.1824978 -0.154201E-08  0.320E-04    1.50      40.0  T
  16    -87.1824978 -0.273016E-08  0.185E-04    1.50      69.3  T
  17    -87.1824978 -0.542371E-09  0.682E-05    1.50     187.6  T
  18    -87.1824978 -0.198384E-10  0.456E-05    1.50     280.8  T
  19    -87.1824978 -0.524096E-10  0.236E-05    1.50     542.4  T
     SCC iter.                  ...        0 min,  0.080 sec
     gradient                   ...        0 min,  0.014 sec
 * total energy  :   -85.9656269 Eh     change       -0.2683280E-01 Eh
   gradient norm :     0.0232842 Eh/α   predicted    -0.2687628E-01 (   0.16%)
   displ. norm   :     0.2907131 α      lambda       -0.3905552E-02
   maximum displ.:     0.1411996 α      in ANC's #39, #40, #32, ...

........................................................................
.............................. CYCLE   32 ..............................
........................................................................
   1    -87.1773323 -0.871773E+02  0.137E-01    1.54       0.0  T
   2    -87.1772809  0.513309E-04  0.140E-01    1.54       1.0  T
   3    -87.1774149 -0.134011E-03  0.735E-02    1.55       1.0  T
   4    -87.1774307 -0.157306E-04  0.506E-02    1.54       1.0  T
   5    -87.1774643 -0.336378E-04  0.404E-02    1.55       1.0  T
   6    -87.1774935 -0.291628E-04  0.120E-02    1.54       1.1  T
   7    -87.1774960 -0.249707E-05  0.455E-03    1.54       2.8  T
   8    -87.1774962 -0.221259E-06  0.286E-03    1.54       4.5  T
   9    -87.1774962 -0.455981E-07  0.229E-03    1.54       5.6  T
  10    -87.1774963 -0.105031E-06  0.122E-03    1.54      10.5  T
  11    -87.1774964 -0.282818E-07  0.462E-04    1.54      27.7  T
  12    -87.1774964 -0.145268E-08  0.337E-04    1.54      38.0  T
  13    -87.1774964 -0.210446E-08  0.181E-04    1.54      70.9  T
  14    -87.1774964 -0.330161E-09  0.147E-04    1.54      86.9  T
  15    -87.1774964 -0.446434E-09  0.852E-05    1.54     150.2  T
  16    -87.1774964 -0.127329E-09  0.619E-05    1.54     206.9  T
  17    -87.1774964 -0.100414E-09  0.222E-05    1.54     577.3  T
  18    -87.1774964 -0.640910E-11  0.134E-05    1.54     956.6  T
     SCC iter.                  ...        0 min,  0.076 sec
     gradient                   ...        0 min,  0.014 sec
 * total energy  :   -85.9599087 Eh     change        0.5718184E-02 Eh
   gradient norm :     0.0939911 Eh/α   predicted    -0.2117806E-02 (-137.04%)
   displ. norm   :     0.2149916 α      lambda       -0.1431447E-01
   maximum displ.:     0.1485318 α      in ANC's #39, #24, #32, ...

........................................................................
.............................. CYCLE   33 ..............................
........................................................................
   1    -87.1772063 -0.871772E+02  0.102E-01    1.56       0.0  T
   2    -87.1772221 -0.157454E-04  0.476E-02    1.57       1.0  T
   3    -87.1771632  0.588779E-04  0.556E-02    1.56       1.0  T
   4    -87.1772415 -0.783082E-04  0.349E-02    1.57       1.0  T
   5    -87.1772563 -0.148240E-04  0.230E-02    1.57       1.0  T
   6    -87.1772596 -0.331431E-05  0.693E-03    1.57       1.8  T
   7    -87.1772599 -0.246924E-06  0.541E-03    1.57       2.4  T
   8    -87.1772601 -0.248657E-06  0.337E-03    1.57       3.8  T
   9    -87.1772604 -0.277424E-06  0.176E-03    1.57       7.3  T
  10    -87.1772605 -0.641976E-07  0.667E-04    1.57      19.2  T
  11    -87.1772605 -0.275834E-08  0.428E-04    1.57      29.9  T
  12    -87.1772605 -0.194241E-08  0.177E-04    1.57      72.5  T
  13    -87.1772605 -0.766562E-09  0.844E-05    1.57     151.6  T
  14    -87.1772605 -0.933369E-10  0.469E-05    1.57     273.2  T
  15    -87.1772605 -0.226805E-10  0.323E-05    1.57     396.8  T
     SCC iter.                  ...        0 min,  0.065 sec
     gradient                   ...        0 min,  0.014 sec
 * total energy  :   -85.9661362 Eh     change       -0.6227509E-02 Eh
   gradient norm :     0.0235341 Eh/α   predicted    -0.7488055E-02 (  20.24%)
   displ. norm   :     0.2242721 α      lambda       -0.2540362E-02
   maximum displ.:     0.1189049 α      in ANC's #60, #30, #35, ...

........................................................................
.............................. CYCLE   34 ..............................
........................................................................
   1    -87.1839142 -0.871839E+02  0.182E-01    1.45       0.0  T
   2    -87.1838467  0.675106E-04  0.180E-01    1.46       1.0  T
   3    -87.1839407 -0.939311E-04  0.764E-02    1.44       1.0  T
   4    -87.1835509  0.389797E-03  0.106E-01    1.46       1.0  T
   5    -87.1840303 -0.479450E-03  0.209E-02    1.45       1.0  T
   6    -87.1840326 -0.230819E-05  0.708E-03    1.44       1.8  T
   7    -87.1840342 -0.160775E-05  0.389E-03    1.45       3.3  T
   8    -87.1840341  0.108196E-06  0.394E-03    1.45       3.2  T
   9    -87.1840345 -0.343026E-06  0.182E-03    1.45       7.0  T
  10    -87.1840345 -0.446619E-07  0.999E-04    1.45      12.8  T
  11    -87.1840345 -0.113301E-07  0.354E-04    1.45      36.2  T
  12    -87.1840345 -0.468731E-09  0.274E-04    1.45      46.7  T
  13    -87.1840345 -0.146061E-08  0.113E-04    1.45     113.2  T
  14    -87.1840345 -0.168527E-09  0.706E-05    1.45     181.4  T
  15    -87.1840345 -0.999734E-10  0.482E-05    1.45     265.7  T
  16    -87.1840345 -0.380567E-10  0.345E-05    1.45     370.8  T
     SCC iter.                  ...        0 min,  0.069 sec
     gradient                   ...        0 min,  0.014 sec
 * total energy  :   -85.9650441 Eh     change        0.1092137E-02 Eh
   gradient norm :     0.0463197 Eh/α   predicted    -0.1334082E-02 (-222.15%)
   displ. norm   :     0.1501085 α      lambda       -0.3347830E-02
   maximum displ.:     0.0734830 α      in ANC's #60, #35, #30, ...

........................................................................
.............................. CYCLE   35 ..............................
........................................................................
   1    -87.1791696 -0.871792E+02  0.113E-01    1.53       0.0  T
   2    -87.1791671  0.253140E-05  0.109E-01    1.52       1.0  T
   3    -87.1792105 -0.434055E-04  0.366E-02    1.53       1.0  T
   4    -87.1790290  0.181529E-03  0.649E-02    1.52       1.0  T
   5    -87.1792183 -0.189359E-03  0.122E-02    1.53       1.1  T
   6    -87.1792198 -0.141583E-05  0.397E-03    1.53       3.2  T
   7    -87.1792200 -0.289979E-06  0.258E-03    1.53       5.0  T
   8    -87.1792201 -0.105058E-07  0.226E-03    1.53       5.7  T
   9    -87.1792201 -0.779603E-07  0.135E-03    1.53       9.5  T
  10    -87.1792202 -0.223174E-07  0.745E-04    1.53      17.2  T
  11    -87.1792202 -0.577631E-08  0.277E-04    1.53      46.2  T
  12    -87.1792202 -0.287031E-09  0.175E-04    1.53      73.0  T
  13    -87.1792202 -0.511989E-09  0.885E-05    1.53     144.7  T
  14    -87.1792202 -0.993623E-10  0.496E-05    1.53     258.1  T
  15    -87.1792202 -0.436273E-10  0.361E-05    1.53     354.9  T
     SCC iter.                  ...        0 min,  0.065 sec
     gradient                   ...        0 min,  0.014 sec
 * total energy  :   -85.9666708 Eh     change       -0.1626681E-02 Eh
   gradient norm :     0.0117661 Eh/α   predicted    -0.1711628E-02 (   5.22%)
[...]
        85                         -0.2183388              -5.9413
       ...                                ...                  ...
       163                          2.4830268              67.5666
      -------------------------------------------------------------
                  HL-Gap            0.0575796 Eh            1.5668 eV
             Fermi-level           -0.3077872 Eh           -8.3753 eV

 SCC (total)                   0 d,  0 h,  0 min,  0.039 sec
 SCC setup                      ...        0 min,  0.000 sec (  0.895%)
 Dispersion                     ...        0 min,  0.001 sec (  1.755%)
 classical contributions        ...        0 min,  0.000 sec (  0.212%)
 integral evaluation            ...        0 min,  0.005 sec ( 14.212%)
 iterations                     ...        0 min,  0.017 sec ( 44.454%)
 molecular gradient             ...        0 min,  0.015 sec ( 37.636%)
 printout                       ...        0 min,  0.000 sec (  0.740%)

         :::::::::::::::::::::::::::::::::::::::::::::::::::::
         ::                     SUMMARY                     ::
         :::::::::::::::::::::::::::::::::::::::::::::::::::::
         :: total energy             -85.970431672923 Eh    ::
         :: gradient norm              0.000819691898 Eh/a0 ::
         :: HOMO-LUMO gap              1.566821738477 eV    ::
         ::.................................................::
         :: SCC energy               -87.184257184338 Eh    ::
         :: -> isotropic ES            0.047301072957 Eh    ::
         :: -> anisotropic ES          0.001892649335 Eh    ::
         :: -> anisotropic XC          0.032865215448 Eh    ::
         :: -> dispersion             -0.085173788607 Eh    ::
         :: repulsion energy           1.209694954926 Eh    ::
         :: add. restraining           0.000733595989 Eh    ::
         :: total charge              -0.000000000000 e     ::
         :::::::::::::::::::::::::::::::::::::::::::::::::::::

           -------------------------------------------------
          |                Property Printout                |
           -------------------------------------------------

    * Orbital Energies and Occupations

         #    Occupation            Energy/Eh            Energy/eV
      -------------------------------------------------------------
         1        2.0000           -1.0230958             -27.8399
       ...           ...                  ...                  ...
        68        2.0000           -0.3931832             -10.6991
        69        2.0000           -0.3926046             -10.6833
        70        2.0000           -0.3923493             -10.6764
        71        2.0000           -0.3907212             -10.6321
        72        2.0000           -0.3849485             -10.4750
        73        2.0000           -0.3848147             -10.4713
        74        2.0000           -0.3832399             -10.4285
        75        2.0000           -0.3794558             -10.3255
        76        2.0000           -0.3755723             -10.2198
        77        2.0000           -0.3751012             -10.2070
        78        2.0000           -0.3746370             -10.1944
        79        2.0000           -0.3431523              -9.3377
        80        2.0000           -0.3365770              -9.1587 (HOMO)
        81                         -0.2789973              -7.5919 (LUMO)
        82                         -0.2630413              -7.1577
        83                         -0.2273949              -6.1877
        84                         -0.2228073              -6.0629
        85                         -0.2183388              -5.9413
        86                         -0.2178409              -5.9278
        87                         -0.2172342              -5.9112
        88                         -0.2099506              -5.7130
        89                         -0.1007263              -2.7409
        90                         -0.0977173              -2.6590
        91                         -0.0393843              -1.0717
       ...                                ...                  ...
       163                          2.4830268              67.5666
      -------------------------------------------------------------
                  HL-Gap            0.0575796 Eh            1.5668 eV
             Fermi-level           -0.3077872 Eh           -8.3753 eV

     #   Z          covCN         q      C6AA      α(0)
     1  44 Ru       5.200    -0.072   318.679    37.798
     2   6 C        3.738    -0.034    21.269     6.581
     3   1 H        0.924     0.069     2.099     2.266
     4   6 C        4.589    -0.002    20.536     6.436
     5   1 H        0.924     0.060     2.198     2.318
     6   6 C        3.738    -0.034    21.270     6.581
     7   1 H        0.924     0.069     2.097     2.265
     8   1 H        0.924     0.069     2.102     2.267
     9   1 H        0.924     0.060     2.198     2.319
    10   1 H        0.924     0.069     2.101     2.267
    11   7 N        2.813    -0.032    21.860     6.944
    12   7 N        2.813    -0.032    21.860     6.944
    13   6 C        2.851     0.092    25.957     8.350
    14   6 C        3.792     0.000    20.588     6.462
    15   1 H        0.924     0.052     2.293     2.368
    16   1 H        0.924     0.053     2.282     2.362
    17   6 C        3.792     0.000    20.589     6.462
    18   1 H        0.924     0.053     2.280     2.361
    19   1 H        0.924     0.052     2.295     2.369
    20   6 C        2.926     0.039    27.125     8.541
    21   6 C        2.963     0.018    27.598     8.617
    22   6 C        2.932    -0.054    29.334     8.882
    23   1 H        0.926     0.039     2.460     2.453
    24   6 C        2.962     0.017    27.618     8.620
    25   6 C        2.932    -0.054    29.342     8.884
    26   1 H        0.926     0.039     2.466     2.455
    27   6 C        2.963     0.018    27.609     8.619
    28   6 C        3.758    -0.116    22.773     6.804
    29   1 H        0.925     0.034     2.526     2.485
    30   1 H        0.925     0.095     1.834     2.118
    31   1 H        0.925     0.044     2.393     2.419
    32   6 C        3.758    -0.110    22.650     6.785
    33   1 H        0.925     0.046     2.374     2.410
    34   1 H        0.925     0.046     2.372     2.408
    35   1 H        0.924     0.049     2.331     2.388
    36   6 C        3.758    -0.115    22.762     6.802
    37   1 H        0.925     0.045     2.387     2.416
    38   1 H        0.925     0.093     1.852     2.128
    39   1 H        0.925     0.035     2.515     2.480
    40   6 C        2.926     0.039    27.125     8.541
    41   6 C        2.963     0.018    27.600     8.617
    42   6 C        2.932    -0.054    29.334     8.882
    43   1 H        0.926     0.039     2.460     2.453
    44   6 C        2.962     0.017    27.618     8.620
    45   6 C        2.932    -0.054    29.339     8.883
    46   1 H        0.926     0.039     2.464     2.455
    47   6 C        2.963     0.018    27.606     8.618
    48   6 C        3.758    -0.116    22.770     6.803
    49   1 H        0.925     0.035     2.523     2.484
    50   1 H        0.925     0.044     2.390     2.418
    51   1 H        0.924     0.094     1.839     2.121
    52   6 C        3.758    -0.110    22.650     6.785
    53   1 H        0.924     0.049     2.331     2.387
    54   1 H        0.925     0.046     2.372     2.408
    55   1 H        0.925     0.046     2.374     2.410
    56   6 C        3.758    -0.115    22.761     6.802
    57   1 H        0.925     0.035     2.517     2.481
    58   1 H        0.924     0.092     1.855     2.130
    59   1 H        0.925     0.045     2.384     2.415
    60  17 Cl       0.813    -0.454   113.990    16.333
    61  17 Cl       0.813    -0.453   113.945    16.330

 Mol. C6AA /au·bohr⁶  :      46743.989780
 Mol. C8AA /au·bohr⁸  :    1368012.677927
 Mol. α(0) /au        :        345.808797


Wiberg/Mayer (AO) data.
largest (>0.10) Wiberg bond orders for each atom

 ---------------------------------------------------------------------------
     #   Z sym  total        # sym  WBO       # sym  WBO       # sym  WBO
 ---------------------------------------------------------------------------
     1  44 Ru   5.676 --     6 C    1.117     2 C    1.117    13 C    0.966
                            61 Cl   0.752    60 Cl   0.751     4 C    0.200
     2   6 C    3.969 --     1 Ru   1.117     4 C    0.934     3 H    0.914
                            10 H    0.913
     3   1 H    0.993 --     2 C    0.914
     4   6 C    3.996 --     9 H    0.948     5 H    0.948     6 C    0.934
                             2 C    0.934     1 Ru   0.200
     5   1 H    0.996 --     4 C    0.948
     6   6 C    3.969 --     1 Ru   1.117     4 C    0.934     7 H    0.914
                             8 H    0.913
     7   1 H    0.993 --     6 C    0.914
     8   1 H    0.993 --     6 C    0.913
     9   1 H    0.996 --     4 C    0.948
    10   1 H    0.993 --     2 C    0.913
    11   7 N    3.544 --    13 C    1.327    14 C    0.964    20 C    0.960
                            12 N    0.116
    12   7 N    3.544 --    13 C    1.327    17 C    0.964    40 C    0.960
                            11 N    0.116
    13   6 C    3.794 --    11 N    1.327    12 N    1.327     1 Ru   0.966
    14   6 C    3.977 --    17 C    1.001    15 H    0.967    16 H    0.967
                            11 N    0.964
    15   1 H    0.997 --    14 C    0.967
    16   1 H    0.997 --    14 C    0.967
    17   6 C    3.977 --    14 C    1.001    19 H    0.967    18 H    0.967
                            12 N    0.964
    18   1 H    0.997 --    17 C    0.967
    19   1 H    0.997 --    17 C    0.967
    20   6 C    3.947 --    21 C    1.356    27 C    1.354    11 N    0.960
    21   6 C    3.985 --    22 C    1.409    20 C    1.356    28 C    1.030
                            25 C    0.101
    22   6 C    3.987 --    24 C    1.413    21 C    1.409    23 H    0.966
                            27 C    0.101
    23   1 H    0.997 --    22 C    0.966
    24   6 C    3.987 --    22 C    1.413    25 C    1.410    32 C    1.026
    25   6 C    3.987 --    27 C    1.412    24 C    1.410    26 H    0.966
                            21 C    0.101
    26   1 H    0.997 --    25 C    0.966
    27   6 C    3.985 --    25 C    1.412    20 C    1.354    36 C    1.029
                            22 C    0.101
    28   6 C    3.991 --    21 C    1.030    31 H    0.984    29 H    0.972
                            30 H    0.938
    29   1 H    0.999 --    28 C    0.972
    30   1 H    0.991 --    28 C    0.938
    31   1 H    0.998 --    28 C    0.984
    32   6 C    3.996 --    24 C    1.026    33 H    0.982    34 H    0.981
                            35 H    0.967
    33   1 H    0.998 --    32 C    0.982
    34   1 H    0.997 --    32 C    0.981
    35   1 H    0.997 --    32 C    0.967
    36   6 C    3.991 --    27 C    1.029    37 H    0.985    39 H    0.970
                            38 H    0.940
    37   1 H    0.998 --    36 C    0.985
    38   1 H    0.991 --    36 C    0.940
    39   1 H    0.998 --    36 C    0.970
    40   6 C    3.947 --    41 C    1.355    47 C    1.355    12 N    0.960
    41   6 C    3.985 --    42 C    1.410    40 C    1.355    48 C    1.030
                            45 C    0.101
    42   6 C    3.987 --    44 C    1.412    41 C    1.410    43 H    0.966
                            47 C    0.101
    43   1 H    0.997 --    42 C    0.966
    44   6 C    3.987 --    42 C    1.412    45 C    1.411    52 C    1.026
    45   6 C    3.987 --    47 C    1.412    44 C    1.411    46 H    0.966
                            41 C    0.101
    46   1 H    0.997 --    45 C    0.966
    47   6 C    3.985 --    45 C    1.412    40 C    1.355    56 C    1.029
                            42 C    0.101
    48   6 C    3.991 --    41 C    1.030    50 H    0.984    49 H    0.971
                            51 H    0.938
    49   1 H    0.999 --    48 C    0.971
    50   1 H    0.998 --    48 C    0.984
    51   1 H    0.991 --    48 C    0.938
    52   6 C    3.996 --    44 C    1.026    55 H    0.982    54 H    0.981
                            53 H    0.967
    53   1 H    0.997 --    52 C    0.967
    54   1 H    0.997 --    52 C    0.981
    55   1 H    0.998 --    52 C    0.982
    56   6 C    3.991 --    47 C    1.029    59 H    0.985    57 H    0.970
                            58 H    0.941
    57   1 H    0.998 --    56 C    0.970
    58   1 H    0.991 --    56 C    0.941
    59   1 H    0.998 --    56 C    0.985
    60  17 Cl   0.956 --     1 Ru   0.751
    61  17 Cl   0.958 --     1 Ru   0.752
 ---------------------------------------------------------------------------

Topologies differ in bond orders
Writing corrected topology to xtbtopo.sdf

molecular dipole:
                 x           y           z       tot (Debye)
 q only:        0.001      -2.002      -0.000
   full:       -0.003      -1.496      -0.022       3.803
molecular quadrupole (traceless):
                xx          xy          yy          xz          yz          zz
 q only:       17.758       0.002       8.990       0.418       0.848     -26.747
  q+dip:       16.611      -0.010      13.118       0.426       0.663     -29.729
   full:       16.043      -0.010      16.674       0.439       0.792     -32.718

           -------------------------------------------------
          |                Geometry Summary                 |
           -------------------------------------------------

      molecular mass/u    :      520.4959873
   center of mass at/Å    :        0.0003351      -0.0143141      -0.0426574
  moments of inertia/u·Å² :        0.2103406E+04   0.4815770E+04   0.4977201E+04
rotational constants/cm⁻¹ :        0.8014444E-02   0.3500506E-02   0.3386970E-02

 * 58 selected distances

     #   Z          #   Z                                           value/Å
     1  44 Ru       2   6 C                                       1.9658288
     2   6 C        3   1 H                                       1.0934728
     2   6 C        4   6 C                                       1.5784688
     4   6 C        5   1 H                                       1.0946274
     1  44 Ru       6   6 C                                       1.9658161
     4   6 C        6   6 C                                       1.5784860
     6   6 C        7   1 H                                       1.0934335
     6   6 C        8   1 H                                       1.0936802
     4   6 C        9   1 H                                       1.0946807
     2   6 C       10   1 H                                       1.0937352
     1  44 Ru      13   6 C                                       2.0186134
    11   7 N       13   6 C                                       1.3259617
    12   7 N       13   6 C                                       1.3260676
    11   7 N       14   6 C                                       1.4593262
    14   6 C       15   1 H                                       1.0940149
    14   6 C       16   1 H                                       1.0940337
    12   7 N       17   6 C                                       1.4592807
    14   6 C       17   6 C                                       1.5367622
    17   6 C       18   1 H                                       1.0938359
    17   6 C       19   1 H                                       1.0942192
    11   7 N       20   6 C                                       1.4276161
    20   6 C       21   6 C                                       1.3988593
    21   6 C       22   6 C                                       1.3876209
    22   6 C       23   1 H                                       1.0805817 (min)
    22   6 C       24   6 C                                       1.3867103
    24   6 C       25   6 C                                       1.3872478
    25   6 C       26   1 H                                       1.0806442
    20   6 C       27   6 C                                       1.3990466
    25   6 C       27   6 C                                       1.3873119
    28   6 C       29   1 H                                       1.0885311
    28   6 C       30   1 H                                       1.0904734
    28   6 C       31   1 H                                       1.0865687
    32   6 C       33   1 H                                       1.0872182
    32   6 C       34   1 H                                       1.0873695
    32   6 C       35   1 H                                       1.0905852
    36   6 C       37   1 H                                       1.0865544
    36   6 C       38   1 H                                       1.0904791
    36   6 C       39   1 H                                       1.0885280
    12   7 N       40   6 C                                       1.4275870
    40   6 C       41   6 C                                       1.3989367
    41   6 C       42   6 C                                       1.3875669
    42   6 C       43   1 H                                       1.0806044
    42   6 C       44   6 C                                       1.3868293
    44   6 C       45   6 C                                       1.3872034
    45   6 C       46   1 H                                       1.0806315
    40   6 C       47   6 C                                       1.3989878
    45   6 C       47   6 C                                       1.3873222
    48   6 C       49   1 H                                       1.0882437
    48   6 C       50   1 H                                       1.0867243
    48   6 C       51   1 H                                       1.0908980
    52   6 C       53   1 H                                       1.0905777
    52   6 C       54   1 H                                       1.0873357
    52   6 C       55   1 H                                       1.0872311
    56   6 C       57   1 H                                       1.0886896
    56   6 C       58   1 H                                       1.0905852
    56   6 C       59   1 H                                       1.0860827
     1  44 Ru      60  17 Cl                                      2.3625598
     1  44 Ru      61  17 Cl                                      2.3626478 (max)

 * 5 distinct bonds (by element types)

   Z      Z             #   av. dist./Å        max./Å        min./Å
   1 H    6 C          32     1.0892147     1.0946807     1.0805817
   6 C    6 C          15     1.4258240     1.5784860     1.3867103
   6 C    7 N           6     1.4043065     1.4593262     1.3259617
   6 C   44 Ru          3     1.9834194     2.0186134     1.9658161
  17 Cl  44 Ru          2     2.3626038     2.3626478     2.3625598


optimized geometry written to: xtbopt.sdf


           -------------------------------------------------
          | TOTAL ENERGY              -85.970431672923 Eh   |
          | GRADIENT NORM               0.000819691898 Eh/α |
          | HOMO-LUMO GAP               1.566821738477 eV   |
           -------------------------------------------------

------------------------------------------------------------------------
 * finished run on 2025/08/30 at 01:28:09.187     
------------------------------------------------------------------------
 total:
 * wall-time:     0 d,  0 h,  0 min,  7.601 sec
 *  cpu-time:     0 d,  0 h,  1 min, 15.361 sec
 * ratio c/w:     9.915 speedup
 SCF:
 * wall-time:     0 d,  0 h,  0 min,  0.051 sec
 *  cpu-time:     0 d,  0 h,  0 min,  0.500 sec
 * ratio c/w:     9.749 speedup
 ANC optimizer:
 * wall-time:     0 d,  0 h,  0 min,  7.450 sec
 *  cpu-time:     0 d,  0 h,  1 min, 14.168 sec
 * ratio c/w:     9.955 speedup

normal termination of xtb
