61
 energy: -85.947038113611 gnorm: 0.087631559232 xtb: 6.4.1 (afa7bdf)
Ru       -0.00130000000000    1.11070000000000    0.06770000000000
C        -1.37050000000000    2.52340000000000    0.09360000000000
H        -2.09660000000000    2.87420000000000    0.82920000000000
C        -0.00230000000000    3.28870000000000    0.11220000000000
H        -0.00080000000000    3.91600000000000    1.02950000000000
C         1.36650000000000    2.52480000000000    0.08770000000000
H         1.85400000000000    2.52540000000000   -0.89130000000000
H         2.09350000000000    2.87560000000000    0.82260000000000
H        -0.00450000000000    4.02060000000000   -0.72340000000000
H        -1.85940000000000    2.52340000000000   -0.88480000000000
N         1.12160000000000   -1.70090000000000   -0.02000000000000
N        -1.11980000000000   -1.70100000000000   -0.05220000000000
C        -0.00030000000000   -0.91150000000000    0.03360000000000
C         0.77110000000000   -3.13670000000000   -0.15350000000000
H         1.18400000000000   -3.69420000000000    0.69250000000000
H         1.20700000000000   -3.53730000000000   -1.07340000000000
C        -0.76500000000000   -3.13710000000000   -0.17430000000000
H        -1.17600000000000   -3.53990000000000   -1.10470000000000
H        -1.20010000000000   -3.69320000000000    0.66150000000000
C         2.48450000000000   -1.23380000000000   -0.00560000000000
C         3.12510000000000   -0.96690000000000    1.22010000000000
C         4.41490000000000   -0.46420000000000    1.21320000000000
H         4.90340000000000   -0.26250000000000    2.14990000000000
C         5.09090000000000   -0.20910000000000    0.02460000000000
C         4.44700000000000   -0.47560000000000   -1.17920000000000
H         4.96310000000000   -0.28720000000000   -2.10380000000000
C         3.15330000000000   -0.96760000000000   -1.21600000000000
C         2.41450000000000   -1.19330000000000    2.50530000000000
H         1.43230000000000   -1.63680000000000    2.33950000000000
H         2.26550000000000   -0.25190000000000    3.03580000000000
H         2.98070000000000   -1.86390000000000    3.15300000000000
C         6.48750000000000    0.30590000000000    0.04100000000000
H         6.66860000000000    0.92440000000000    0.92100000000000
H         6.69220000000000    0.91620000000000   -0.83960000000000
H         7.20340000000000   -0.51680000000000    0.05440000000000
C         2.47640000000000   -1.21820000000000   -2.51480000000000
H         2.74030000000000   -0.45520000000000   -3.24830000000000
H         1.39210000000000   -1.20000000000000   -2.39910000000000
H         2.75730000000000   -2.19120000000000   -2.91950000000000
C        -2.48260000000000   -1.23470000000000   -0.07430000000000
C        -3.15110000000000   -0.95430000000000    1.13330000000000
C        -4.44040000000000   -0.45200000000000    1.09130000000000
H        -4.94980000000000   -0.23900000000000    2.01420000000000
C        -5.08960000000000   -0.21170000000000   -0.11520000000000
C        -4.41850000000000   -0.49200000000000   -1.30090000000000
H        -4.91350000000000   -0.31480000000000   -2.23910000000000
C        -3.12390000000000   -0.98320000000000   -1.30260000000000
C        -2.46910000000000   -1.16340000000000    2.43680000000000
H        -1.49590000000000   -1.63600000000000    2.30090000000000
H        -3.06330000000000   -1.80140000000000    3.09210000000000
H        -2.30540000000000   -0.21180000000000    2.94430000000000
C        -6.48650000000000    0.30230000000000   -0.13650000000000
H        -7.20210000000000   -0.52080000000000   -0.12980000000000
H        -6.67150000000000    0.90220000000000   -1.02850000000000
H        -6.68790000000000    0.93080000000000    0.73200000000000
C        -2.41690000000000   -1.24640000000000   -2.58270000000000
H        -2.68620000000000   -2.22450000000000   -2.98300000000000
H        -1.33560000000000   -1.22380000000000   -2.44230000000000
H        -2.66580000000000   -0.49210000000000   -3.33040000000000
Cl        0.01150000000000    1.24420000000000   -2.29290000000000
Cl       -0.01420000000000    1.16640000000000    2.43150000000000
61
 energy: -85.926116277975 gnorm: 0.590865211050 xtb: 6.4.1 (afa7bdf)
Ru       -0.00240960816666    1.05607997659366    0.09425270754470
C        -1.32821193640270    2.54502687191911    0.06337946614973
H        -2.03052509263847    2.80883905071314    0.86819449246359
C        -0.00304370627457    3.34079544398828    0.10564208788975
H         0.00023684865170    3.91667679961212    1.03645328926562
C         1.32537260082443    2.53324436934381    0.05585855402526
H         1.84277216148488    2.56946569096524   -0.91018723099004
H         2.02411596375857    2.79822394420912    0.86559040228475
H        -0.00189832607717    4.02179447297112   -0.75098499971398
H        -1.84694422405741    2.51897768754180   -0.90260995940528
N         1.09557748261530   -1.68452587523805   -0.02245645902212
N        -1.09355188405495   -1.68466137555053   -0.05361816736642
C         0.00026870528315   -0.92068116574232    0.03144893919998
C         0.77208537327170   -3.10823470776740   -0.15395604539313
H         1.18067997493483   -3.67415311715869    0.69114531281474
H         1.20409566905060   -3.51893258447222   -1.07256987999894
C        -0.76621632729379   -3.10849606671580   -0.17447455961155
H        -1.17347294098311   -3.52104848665234   -1.10348950054613
H        -1.19691320103237   -3.67327562791331    0.66040477046918
C         2.45084495188705   -1.19535852298601   -0.00501141245812
C         3.09668743088823   -0.95839106504296    1.21402976541492
C         4.39884426591010   -0.46956427895089    1.20712697596792
H         4.88834369621417   -0.27136026870488    2.15060557803397
C         5.07890205235817   -0.21743103184375    0.02547824487788
C         4.43011892434854   -0.48019594382350   -1.17301097784490
H         4.94706649073665   -0.29199191135328   -2.10395866810564
C         3.12794270979895   -0.96279409597707   -1.20986923342979
C         2.40491025767438   -1.20108414743683    2.51655337483457
H         1.42413523943476   -1.63986624011325    2.36016136526456
H         2.26092022997824   -0.25688170365305    3.03943944597696
H         2.99213870792470   -1.86076794829059    3.15336921177673
C         6.48350511186410    0.30793677166106    0.04117569770759
H         6.66200262155224    0.91742355808534    0.92421864564115
H         6.68528987852658    0.90954563078458   -0.84232521606950
H         7.19529536867253   -0.51864418795712    0.05417256905041
C         2.46562531547006   -1.22154474683200   -2.52581923978078
H         2.74640973446162   -0.46005107079775   -3.24895709652282
H         1.38498554823519   -1.19599356863090   -2.42009489855079
H         2.76088284679767   -2.19426955838084   -2.92114221642810
C        -2.44886048875589   -1.19582880308662   -0.07325884250869
C        -3.12252961797020   -0.94493397052709    1.12794317110101
C        -4.42429753226445   -0.45676017991619    1.08569559837439
H        -4.93502828491751   -0.24755580911868    2.01544425167644
C        -5.07760100662541   -0.21943973173506   -0.11396750430467
C        -4.40164939220233   -0.49608193850923   -1.29422834482881
H        -4.89739253332759   -0.31917307923855   -2.23883537486393
C        -3.09869835872484   -0.97806420856620   -1.29585987110984
C        -2.46010288660706   -1.17104469181741    2.44848335683919
H        -1.48855070271682   -1.63918076888121    2.32170963595772
H        -3.07517967479086   -1.79766900127406    3.09207244068555
H        -2.30023079429927   -0.21695291683334    2.94884864508799
C        -6.48244605224633    0.30500522068317   -0.13625908173399
H        -7.19393357980343   -0.52192625634162   -0.12983804906460
H        -6.66442790382980    0.89620519540166   -1.03102589798612
H        -6.68126072831468    0.92452057704798    0.73541605906337
C        -2.40589187752513   -1.24971384966628   -2.59337439004254
H        -2.68981396210762   -2.22741868949559   -2.98468785621982
H        -1.32805604134841   -1.21997751778916   -2.46304625039317
H        -2.67176461724986   -0.49677486671353   -3.33100886288883
Cl        0.00945577712042    1.18594528721064   -2.26342798643481
Cl       -0.01280865712081    1.16028902876333    2.41164001817829
61
 energy: -85.936085746410 gnorm: 0.448501813862 xtb: 6.4.1 (afa7bdf)
Ru       -0.00192859842360    1.06645884364903    0.03032709907838
C        -1.33239332755526    2.52104832752313    0.05756891953028
H        -1.97472603844467    2.79411305286628    0.91581364923488
C        -0.00524069517652    3.37888596033390    0.10427523909695
H        -0.00114035578806    3.89955811055208    1.04474132063085
C         1.31850546176311    2.52201916496216    0.04454859105534
H         1.83634523249215    2.60636666252191   -0.92674924546271
H         1.97012225536021    2.77538761452124    0.90923782839577
H        -0.00512727096255    4.00546036808322   -0.76985899634002
H        -1.82202352566959    2.54881200332636   -0.92894412374830
N         1.06713919512955   -1.67764135929094   -0.02170675973983
N        -1.06570075307149   -1.67840442358583   -0.05197216416168
C        -0.00054352839732   -0.95615662906187    0.04532912579129
C         0.77421379156859   -3.08876469065423   -0.15172755951967
H         1.17817842053960   -3.66665392501809    0.69080184682837
H         1.20169015345389   -3.51060123093240   -1.07001994818556
C        -0.76865815466628   -3.08915505397176   -0.17213346951037
H        -1.17119356038476   -3.51259617760052   -1.10074217093609
H        -1.19454678975203   -3.66604736812845    0.66018634422644
C         2.42351937401161   -1.16663143468334   -0.00290549495902
C         3.07550167022231   -0.95606864629348    1.20634147530758
C         4.39019296952692   -0.47518924092862    1.19983947143824
H         4.88062301359838   -0.27457701874919    2.15122404115869
C         5.07284035390762   -0.22545755650192    0.02634758724777
C         4.41996856099865   -0.48554659108209   -1.16582332104836
H         4.93851848375081   -0.29344396732315   -2.10450333662911
C         3.10913775090340   -0.96394533524136   -1.20033064379470
C         2.39861470731355   -1.20954037800116    2.52634372763182
H         1.42034800436436   -1.63833065195820    2.37141155372606
H         2.25943889017356   -0.26044265720488    3.03718607710083
H         3.00003624359266   -1.85894841146809    3.15548498217834
C         6.48642349610556    0.31424279567223    0.04111502885811
H         6.66013883703595    0.91350473781757    0.92695065649659
H         6.68357748783206    0.90577675168031   -0.84508949214340
H         7.19227339161929   -0.51806755189848    0.05404704395995
C         2.45677489128959   -1.22478182868521   -2.53532292231934
H         2.75027380772671   -0.46333968646159   -3.24676940883912
H         1.38189985497039   -1.19339157577406   -2.42966232103083
H         2.76403638267559   -2.19643971182518   -2.92385287567206
C        -2.42209203571423   -1.16741036751442   -0.07088380290217
C        -3.10126867306933   -0.94222253464422    1.12079746260846
C        -4.41563011980908   -0.46223908743104    1.07865614402250
H        -4.92750033512599   -0.25070511551852    2.01633394018320
C        -5.07157282770233   -0.22730221700958   -0.11291407649519
C        -4.39166359462114   -0.50123689788299   -1.28675683336881
H        -4.88885775337426   -0.32043649042169   -2.23918907195468
C        -3.08029268316746   -0.97910150291233   -1.28589237462175
C        -2.45433996231173   -1.17953869247923    2.45847685300566
H        -1.48503710295067   -1.63771057821397    2.33296658454162
H        -3.08325131445348   -1.79548470782725    3.09394651320219
H        -2.29835670285427   -0.22065475901960    2.94680514307802
C        -6.48537215226667    0.31148991997666   -0.13644613698136
H        -7.19089776603131   -0.52112239224650   -0.12991870146741
H        -6.66261662398524    0.89260770429149   -1.03372105648626
H        -6.67941809686050    0.92080302546428    0.73818688924710
C        -2.39690076739066   -1.25307015522164   -2.60262667778871
H        -2.69290664084755   -2.22962310545866   -2.98752395067926
H        -1.32490274620479   -1.21743990222412   -2.47245582016523
H        -2.67565330640120   -0.49999150884834   -3.32868788160046
Cl        0.00606765288574    1.15622188914340   -2.27582346043030
Cl       -0.00884653137777    1.14999618481293    2.42826296012050
61
 energy: -85.423003824648 gnorm: 2.487988008890 xtb: 6.4.1 (afa7bdf)
Ru       -0.00915814203407    1.21062782683613    0.16515161160098
C        -1.37200508761120    2.45561032156698    0.07839481415381
H        -1.98546214743393    2.78904006924624    0.92118098264649
C        -0.00474560635488    3.36704867198427    0.10364211039015
H        -0.00074363592428    3.90446673533567    1.04353301569488
C         1.35232275420033    2.50018796776032    0.03843204436894
H         1.87217538274617    2.57127467856161   -0.92087162634140
H         1.95983635087696    2.78799433478719    0.91596343574562
H        -0.01061220891132    4.00183984140569   -0.77079082130632
H        -1.81516231135217    2.55858682772405   -0.93240401280816
N         1.08032673449715   -1.68338376538697   -0.01958555230332
N        -1.07948210109151   -1.68452052087513   -0.05014891110620
C        -0.00243284649643   -0.96730727895041    0.07503935735750
C         0.77399408064918   -3.09556245155078   -0.15504536588520
H         1.17873905680267   -3.66569311627825    0.69025662074657
H         1.20297445182328   -3.50973502161061   -1.07281187204554
C        -0.76844068023513   -3.09618268335371   -0.17545247513020
H        -1.17250645130893   -3.51179385862977   -1.10359585636836
H        -1.19511639780945   -3.66519601076162    0.65966067949712
C         2.42705968249190   -1.16888958137242   -0.00339465943111
C         3.07692310040988   -0.95431569517568    1.20897463192628
C         4.38847012625830   -0.47353246904486    1.20214074448873
H         4.87895237975197   -0.27621860676325    2.15161235425055
C         5.07116211673150   -0.22409926250037    0.02616516973051
C         4.41823783210645   -0.48420580264255   -1.16739629309017
H         4.93639160046570   -0.29450670523668   -2.10414465592976
C         3.10935725723340   -0.96211544041950   -1.20380728338479
C         2.39845116783646   -1.20787419828732    2.52561111350161
H         1.41905388651202   -1.64112174652124    2.37436985693136
H         2.25913582632062   -0.26066456280224    3.04071326362802
H         3.00008732073821   -1.85879832598504    3.15440225981352
C         6.48311135155901    0.31122909371985    0.04130494790304
H         6.65844031537633    0.91281709525467    0.92691326862626
H         6.68158344677588    0.90517768761258   -0.84459629493435
H         7.19063014369301   -0.51927882549728    0.05405326055164
C         2.45715303690821   -1.22465168640807   -2.53399518751444
H         2.75051861850329   -0.46351058294078   -3.24752458056706
H         1.38059579992195   -1.19176085584519   -2.43292239044472
H         2.76346211631022   -2.19645295290985   -2.92304802921441
C        -2.42589707064176   -1.16978734208427   -0.07145042365567
C        -3.10276704908549   -0.94032571379436    1.12331421397069
C        -4.41393966996574   -0.46044582299433    1.08095322642309
H        -4.92586617619039   -0.25221493438113    2.01671363493777
C        -5.06983190080666   -0.22582175025802   -0.11313039230772
C        -4.38987248637534   -0.49985036357901   -1.28832507243945
H        -4.88666392588137   -0.32139859955803   -2.23876906337946
C        -3.08042564517977   -0.97727361257272   -1.28943012060599
C        -2.45406707220515   -1.17770539815772    2.45774716762453
H        -1.48398850663619   -1.64047977414953    2.33594209824012
H        -3.08333334791590   -1.79524638012480    3.09281116890984
H        -2.29807383554311   -0.22078075688154    2.95043077169559
C        -6.48203232093279    0.30860027018020   -0.13622482667041
H        -7.18925986013298   -0.52219201718863   -0.12993643363805
H        -6.66057690733851    0.89213827241161   -1.03322012367064
H        -6.67770183665948    0.92024613434792    0.73811941285675
C        -2.39737182653882   -1.25303464428430   -2.60131835312613
H        -2.69244771703034   -2.22968313606234   -2.98676166853068
H        -1.32364017347630   -1.21591563612017   -2.47569163589128
H        -2.67582825308485   -0.50013113669701   -3.32932905703892
Cl       -0.00212418881033    1.16714496718032   -2.46078702853783
Cl       -0.00176855050549    1.14692823072214    2.42496282908581
61
 energy: -85.917044959775 gnorm: 0.414274735030 xtb: 6.4.1 (afa7bdf)
Ru       -0.00928354801430    1.10472417656098    0.05754564085766
C        -1.34289817818024    2.53101220256046    0.08499356992084
H        -2.01214142243296    2.75842882931852    0.91322615760614
C        -0.00403294136622    3.35935470469142    0.10163202073542
H        -0.00050223793621    3.90815915352923    1.04451232657335
C         1.33871557240172    2.54831566594351    0.05139203731598
H         1.87947229772980    2.56551638527801   -0.91232274644397
H         1.97939712454099    2.76544622715885    0.90970315859257
H        -0.01080878110851    4.00686557304800   -0.77269361516641
H        -1.83176274774641    2.54336674023288   -0.91985302410276
N         1.09149376009751   -1.68367612970428   -0.01842764620593
N        -1.09060372503674   -1.68471841913063   -0.04928695832108
C        -0.00168427478341   -0.91828207131665    0.08942921385434
C         0.77273506850403   -3.09875223545341   -0.15500484809640
H         1.17879439377995   -3.66497205315543    0.69037160926782
H         1.20316361446860   -3.50875155139991   -1.07284177467346
C        -0.76716932407680   -3.09941389420599   -0.17539443257717
H        -1.17272129240326   -3.51085299920605   -1.10365920589379
H        -1.19517333610655   -3.66452008766344    0.65979184415103
C         2.42727561088666   -1.17112646582560   -0.00362504733347
C         3.07920682131572   -0.95315652508198    1.21269433942150
C         4.38696715344303   -0.47346519210294    1.20466004865221
H         4.87765833970990   -0.27709950480990    2.15046483656496
C         5.07206503340166   -0.22278599883274    0.02596137266158
C         4.41720420464514   -0.48420063884899   -1.16958907879101
H         4.93495305977215   -0.29542126175321   -2.10291421152843
C         3.11072535397271   -0.96045594532125   -1.20705424416343
C         2.39960650066848   -1.20628145451249    2.52347988417079
H         1.41798028648690   -1.64220254707573    2.37531954933441
H         2.25877661984281   -0.26036122622992    3.04155102785114
H         3.00023500374638   -1.85896675173721    3.15433180387099
C         6.48032276433107    0.30840483630126    0.04130555959060
H         6.65815665867542    0.91321077874966    0.92705223427002
H         6.68127190024332    0.90553577104103   -0.84477440704403
H         7.19048964853108   -0.51931936532164    0.05405167098072
C         2.45868251845417   -1.22465574500860   -2.53146087271565
H         2.75081521857180   -0.46321277092030   -3.24830508032018
H         1.37916683636353   -1.19221991826184   -2.43388079952573
H         2.76304903061387   -2.19645597452989   -2.92285375417835
C        -2.42604491450928   -1.17200348143469   -0.07164001837418
C        -3.10516734136916   -0.93916443842330    1.12696075451209
C        -4.41249871119090   -0.46032186601027    1.08352646859564
H        -4.92456181346822   -0.25309320805744    2.01559443562093
C        -5.07074947469807   -0.22449227716891   -0.11337380324317
C        -4.38882502730828   -0.49984585559649   -1.29051153915378
H        -4.88524820721734   -0.32228731754687   -2.23750014950290
C        -3.08171966562002   -0.97568147394544   -1.29275929074647
C        -2.45509999238473   -1.17603574836253    2.45559846441484
H        -1.48299629771539   -1.64158121207820    2.33691342631977
H        -3.08350073103330   -1.79539980245237    3.09273093087266
H        -2.29768733284755   -0.22049495398561    2.95128279362930
C        -6.47923838272939    0.30579115314363   -0.13615612154549
H        -7.18912652977891   -0.52222848494842   -0.12994476165362
H        -6.66025886157994    0.89250501418345   -1.03340342557002
H        -6.67742427114412    0.92065940066892    0.73826195575081
C        -2.39897509685894   -1.25303995213102   -2.59880664414742
H        -2.69205258540334   -2.22969846164722   -2.98656601871169
H        -1.32219124511064   -1.21639418671630   -2.47661028699647
H        -2.67610140073961   -0.49983420137543   -3.33012185920539
Cl       -0.00263743057027    1.17195178420817   -2.41169684465561
Cl       -0.00169327272942    1.15497525267256    2.44129337462738
61
 energy: -85.616757711456 gnorm: 1.179408939863 xtb: 6.4.1 (afa7bdf)
Ru        0.04333533851568    1.06964816488558    0.05904124740446
C        -1.38662944645333    2.51626261385690   -0.01978300902192
H        -1.92191719230492    2.82742972766061    0.93506023721786
C        -0.00909598640918    3.32751667803936    0.08910229102959
H        -0.00543963427143    3.90077376514603    1.03493441613665
C         1.36291375355813    2.48941569037186    0.05913594628650
H         1.85181941834072    2.60336515991384   -0.92679624640870
H         1.97414589774012    2.77119659596229    0.90989419741136
H        -0.00705495528809    4.00510678976896   -0.77298814987875
H        -1.91197975831021    2.50536322625033   -0.92422500647020
N         1.09321569453335   -1.68050040561087   -0.02334375132409
N        -1.09341987306363   -1.68069391113118   -0.05445085006128
C        -0.00229344942457   -0.90321287481128   -0.01808401985050
C         0.77159480354325   -3.10153170121844   -0.15471163897369
H         1.17940710251199   -3.66377328582882    0.69099583636004
H         1.20372758896365   -3.50821761242311   -1.07337969402059
C        -0.76593393181777   -3.10203335036999   -0.17514677845206
H        -1.17322765175200   -3.51037448327202   -1.10419988296234
H        -1.19571120562900   -3.66321734001954    0.66039907526809
C         2.43005070638243   -1.17424411809565   -0.00490447738809
C         3.08041989032522   -0.95181111115394    1.21517233477524
C         4.38557033975864   -0.47252853422640    1.20640498733769
H         4.87582344200313   -0.27814747205423    2.14984819464487
C         5.07095912026903   -0.22141248341591    0.02580021976799
C         4.41647617346035   -0.48325742736229   -1.17131873272025
H         4.93305632447944   -0.29674835630025   -2.10234234245337
C         3.11211398127361   -0.95830627070071   -1.20970070645756
C         2.39980137595909   -1.20414843438463    2.52193213366602
H         1.41693606017304   -1.64349512080106    2.37718826662524
H         2.25787107472285   -0.25946973234496    3.04339939188409
H         3.00020101926439   -1.85833883862966    3.15370966015796
C         6.47683016290169    0.30554063499868    0.04119340680790
H         6.65694388945327    0.91324824188235    0.92641706868001
H         6.67995044845301    0.90539533809842   -0.84452079229764
H         7.18964885412037   -0.51981033851445    0.05398221945982
C         2.45965781243482   -1.22419448115640   -2.52970391571885
H         2.75108827971243   -0.46340364485561   -3.24945813484728
H         1.37771830701112   -1.19285600839797   -2.43638793970339
H         2.76223404140301   -2.19655528436462   -2.92201144752574
C        -2.42978937166781   -1.17602575744525   -0.07283654242546
C        -3.10658983965987   -0.93831817479777    1.12940557387482
C        -4.41111153056641   -0.45951980126258    1.08540418414348
H        -4.92268057947039   -0.25428042277028    2.01509598051211
C        -5.06964754565293   -0.22327490666184   -0.11337476771130
C        -4.38814672367332   -0.49901453257154   -1.29214575006666
H        -4.88344039570368   -0.32376026013098   -2.23679078640644
C        -3.08321502176210   -0.97391213809096   -1.29520689162756
C        -2.45521264101450   -1.17401810954990    2.45398381170513
H        -1.48205128657778   -1.64291630082374    2.33883981497948
H        -3.08335902810998   -1.79488423628962    3.09213991239523
H        -2.29675026058386   -0.21976448150622    2.95308983920275
C        -6.47577917899178    0.30269520384716   -0.13603413656591
H        -7.18829045515340   -0.52298895021299   -0.12985042512985
H        -6.65903228823298    0.89212542035791   -1.03298983834683
H        -6.67622082054018    0.92045114801766    0.73779084409902
C        -2.40001883419824   -1.25262384984787   -2.59691794224794
H        -2.69124515330100   -2.22987033733419   -2.98566901551263
H        -1.32067698295594   -1.21711781937841   -2.47900226461316
H        -2.67647814689167   -0.50017026736015   -3.33123472190440
Cl        0.01210522491857    1.19314730201977   -2.05252158799862
Cl       -0.01737695675439    1.19336126640054    2.31527109525969
61
 energy: -85.915852657499 gnorm: 0.486162709735 xtb: 6.4.1 (afa7bdf)
Ru       -0.01576891264697    1.11513954775229    0.06629143240362
C        -1.32041692689756    2.52918193328220    0.03820573243430
H        -1.97429511158174    2.75768156112928    0.91976982836336
C        -0.00497076563510    3.33669808993054    0.08871268989419
H        -0.00583867354955    3.90112818857846    1.03283091039848
C         1.33290395578324    2.53820102342656    0.05357343079933
H         1.86513602659819    2.59226454594472   -0.91667812111755
H         1.99901919150348    2.74269137908441    0.89910277299620
H        -0.00635173296639    4.00750617638935   -0.77441656820635
H        -1.88917468137766    2.53074329683771   -0.92745013076651
N         1.09385636128517   -1.68309131289697   -0.02418805682865
N        -1.09293124615081   -1.68340499543570   -0.05528040920412
C         0.00128841391293   -0.94310606028273    0.01939999596027
C         0.77177512529191   -3.10290993888669   -0.15501762519127
H         1.17961012077042   -3.66367285620926    0.69117323062145
H         1.20390134888029   -3.50800724757120   -1.07394231994990
C        -0.76628034217028   -3.10334679138537   -0.17547091643760
H        -1.17345618078437   -3.51018144055060   -1.10483707887997
H        -1.19603507979780   -3.66312247970370    0.66052691031323
C         2.43182089198231   -1.17500798854893   -0.00491241677220
C         3.07991385590827   -0.95163457880097    1.21517254894696
C         4.38513777616971   -0.47218767999199    1.20644470896390
H         4.87501964578431   -0.27894276577108    2.15019403975090
C         5.06957989034324   -0.22138964236445    0.02596465281386
C         4.41624643304820   -0.48264652611061   -1.17119104003719
H         4.93238964983364   -0.29715739858350   -2.10248049500273
C         3.11179140816792   -0.95755691210735   -1.20973191784376
C         2.39927340524352   -1.20401339933980    2.52203909170091
H         1.41670883675547   -1.64412715371278    2.37823575909777
H         2.25720854058905   -0.25961103947744    3.04413149423774
H         3.00012877332633   -1.85820186855939    3.15322159740562
C         6.47587949196847    0.30485260310436    0.04138439671725
H         6.65616093610485    0.91268873248146    0.92627981443276
H         6.67915690066194    0.90494507569410   -0.84393304728586
H         7.18902076511090   -0.52033299929166    0.05411406228901
C         2.45942441922168   -1.22374284096831   -2.52989727658029
H         2.75134607829398   -0.46346614786070   -3.24982280968254
H         1.37735768446783   -1.19288379123941   -2.43776553697538
H         2.76196154077064   -2.19632667921023   -2.92168481029100
C        -2.43105928680625   -1.17638112349835   -0.07296717899350
C        -3.10621661644892   -0.93799834591443    1.12943503504404
C        -4.41081160584630   -0.45903190367342    1.08528833385346
H        -4.92200473114037   -0.25489948803870    2.01528249068062
C        -5.06832261175941   -0.22309338144344   -0.11338585418954
C        -4.38793464802412   -0.49827464613377   -1.29222460994560
H        -4.88270304654916   -0.32400517781856   -2.23713758326251
C        -3.08294415608988   -0.97305537228909   -1.29551537048063
C        -2.45482384412741   -1.17382935405878    2.45404438454645
H        -1.48201260828129   -1.64352490742587    2.33979168039150
H        -3.08346515363114   -1.79466095375907    3.09153004495466
H        -2.29615846260878   -0.21980707896494    2.95379159836822
C        -6.47481643352015    0.30222118717438   -0.13608580118354
H        -7.18766507026305   -0.52329596320946   -0.13000327318978
H        -6.65818240212139    0.89188951543786   -1.03266858985198
H        -6.67543441412620    0.92009914481531    0.73740344981059
C        -2.39971186037016   -1.25210462814871   -2.59723570622315
H        -2.69091273927886   -2.22955978968837   -2.98544806764985
H        -1.32019158862687   -1.21712839363828   -2.48040086375433
H        -2.67659269706436   -0.50016307999677   -3.33172710782841
Cl        0.01102962097515    1.19057191907614   -2.20812109641897
Cl       -0.01076345851068    1.20968220242162    2.40088556183407
61
 energy: -85.561043420291 gnorm: 1.709417569051 xtb: 6.4.1 (afa7bdf)
Ru        0.06803479585849    0.97888347955034    0.07810623541549
C        -1.42332358948376    2.48970301519516    0.13357504899641
H        -2.00772681794797    2.76743491153748    0.93418178005249
C        -0.01746504735447    3.30803656595236    0.09321322869051
H        -0.00446722532774    3.89036205208301    1.02425547609402
C         1.37128347501520    2.49244108020265    0.03516640712639
H         1.87059358087168    2.59947409717176   -0.92428038932021
H         1.95599241084682    2.78356443639226    0.92168422787568
H        -0.00845146884091    3.99300020163143   -0.76833589938063
H        -1.80565872727922    2.61411389495255   -0.95986360934596
N         1.08484133530427   -1.67019273580788   -0.02005061764258
N        -1.08724332505289   -1.66943366398657   -0.05113829683191