      -----------------------------------------------------------      
     |                   =====================                   |     
     |                           x T B                           |     
     |                   =====================                   |     
     |                         S. Grimme                         |     
     |          Mulliken Center for Theoretical Chemistry        |     
     |                    University of Bonn                     |     
      -----------------------------------------------------------      

   * xtb version 6.7.1 (edcfbbe) compiled by 'albert@albert-system' on 2024-07-22

   xtb is free software: you can redistribute it and/or modify it under
   the terms of the GNU Lesser General Public License as published by
   the Free Software Foundation, either version 3 of the License, or
   (at your option) any later version.
   
   xtb is distributed in the hope that it will be useful,
   but WITHOUT ANY WARRANTY; without even the implied warranty of
   MERCHANTABILITY or FITNESS FOR A PARTICULAR PURPOSE.  See the
   GNU Lesser General Public License for more details.
   
   Cite this work as:
   * C. Bannwarth, E. Caldeweyher, S. Ehlert, A. Hansen, P. Pracht,
     J. Seibert, S. Spicher, S. Grimme, WIREs Comput. Mol. Sci., 2020, 11,
     e01493. DOI: 10.1002/wcms.1493
   
   for GFN2-xTB:
   * C. Bannwarth, S. Ehlert and S. Grimme., J. Chem. Theory Comput., 2019,
     15, 1652-1671. DOI: 10.1021/acs.jctc.8b01176
   for GFN1-xTB:
   * S. Grimme, C. Bannwarth, P. Shushkov, J. Chem. Theory Comput., 2017,
     13, 1989-2009. DOI: 10.1021/acs.jctc.7b00118
   for GFN0-xTB:
   * P. Pracht, E. Caldeweyher, S. Ehlert, S. Grimme, ChemRxiv, 2019, preprint.
     DOI: 10.26434/chemrxiv.8326202.v1
   for GFN-FF:
   * S. Spicher and S. Grimme, Angew. Chem. Int. Ed., 2020, 59, 15665-15673.
     DOI: 10.1002/anie.202004239
   
   for ALPB and GBSA implicit solvation:
   * S. Ehlert, M. Stahn, S. Spicher, S. Grimme, J. Chem. Theory Comput.,
     2021, 17, 4250-4261. DOI: 10.1021/acs.jctc.1c00471
   
   for ddCOSMO and CPCM-X implicit solvation:
   * M. Stahn, S. Ehlert, S. Grimme, J. Phys. Chem. A,
     2023, XX, XXXX-XXXX. DOI: 10.1021/acs.jpca.3c04382
   
   for DFT-D4:
   * E. Caldeweyher, C. Bannwarth and S. Grimme, J. Chem. Phys., 2017,
     147, 034112. DOI: 10.1063/1.4993215
   * E. Caldeweyher, S. Ehlert, A. Hansen, H. Neugebauer, S. Spicher,
     C. Bannwarth and S. Grimme, J. Chem. Phys., 2019, 150, 154122.
     DOI: 10.1063/1.5090222
   * E. Caldeweyher, J.-M. Mewes, S. Ehlert and S. Grimme, Phys. Chem. Chem. Phys.
     2020, 22, 8499-8512. DOI: 10.1039/D0CP00502A
   
   for sTDA-xTB:
   * S. Grimme and C. Bannwarth, J. Chem. Phys., 2016, 145, 054103.
     DOI: 10.1063/1.4959605
   
   in the mass-spec context:
   * V. Asgeirsson, C. Bauer and S. Grimme, Chem. Sci., 2017, 8, 4879.
     DOI: 10.1039/c7sc00601b
   * J. Koopman and S. Grimme, ACS Omega 2019, 4, 12, 15120-15133.
     DOI: 10.1021/acsomega.9b02011
   
   for metadynamics refer to:
   * S. Grimme, J. Chem. Theory Comput., 2019, 155, 2847-2862
     DOI: 10.1021/acs.jctc.9b00143
   
   for SPH calculations refer to:
   * S. Spicher and S. Grimme, J. Chem. Theory Comput., 2021, 17, 1701-1714
     DOI: 10.1021/acs.jctc.0c01306
   
   for ONIOM refer to:
   * C. Plett, A. Katbashev, S. Ehlert, S. Grimme, M. Bursch,
     Phys. Chem. Chem. Phys., 2023, 25, 17860-17868. DOI: 10.1039/D3CP02178E
   
   for DIPRO refer to:
   * J. Kohn, N. Gildemeister, S. Grimme, D. Fazzi, A. Hansen,
     J. Chem. Phys., 2023, just accepted.
   
   for PTB refer to:
   * S. Grimme, M. Mueller, A. Hansen, J. Chem. Phys., 2023, 158, 124111.
     DOI: 10.1063/5.0137838
   
   with help from (in alphabetical order)
   P. Atkinson, C. Bannwarth, F. Bohle, G. Brandenburg, E. Caldeweyher
   M. Checinski, S. Dohm, S. Ehlert, S. Ehrlich, I. Gerasimov, C. Hölzer
   A. Katbashev, J. Kohn, J. Koopman, C. Lavigne, S. Lehtola, F. März, M. Müller,
   F. Musil, H. Neugebauer, J. Pisarek, C. Plett, P. Pracht, F. Pultar,
   J. Seibert, P. Shushkov, S. Spicher, M. Stahn, M. Steiner, T. Strunk,
   J. Stückrath, T. Rose, and J. Unsleber
   
 * started run on 2026/02/05 at 16:53:51.562     
   ID    Z sym.   atoms
    1    1 H      1, 3, 9, 11, 12, 14, 15, 17, 18, 20, 21, 23, 24, 26, 28,
                  29, 31, 32, 34, 35, 37, 38, 40, 41, 43, 45, 46, 48, 49, 51,
                  52, 54, 55, 57, 58, 60, 61, 67, 69, 70, 72, 73, 75, 76, 78,
                  79, 81, 82, 84, 86, 87, 89, 90, 92, 93, 95, 96, 98, 99,
                  101, 103, 104, 106, 107, 109, 110, 112, 113, 115, 116
    2    6 C      2, 8, 10, 13, 16, 19, 22, 25, 27, 30, 33, 36, 39, 42, 44,
                  47, 50, 53, 56, 59, 66, 68, 71, 74, 77, 80, 83, 85, 88, 91,
                  94, 97, 100, 102, 105, 108, 111, 114
    3   44 Ru     4, 62
    4   17 Cl     5, 6, 63, 64
    5   15 P      7, 65
constraining bond 4 2 to    1.9356955 Å, actual value:    1.9356957 Å
constraining bond 2 59 to    5.9319902 Å, actual value:    6.0890225 Å
constraining bond 4 5 to    2.2984119 Å, actual value:    2.2984121 Å
constraining bond 4 6 to    2.3283466 Å, actual value:    2.3283468 Å
constraining bond 4 7 to    2.3123857 Å, actual value:    2.3123859 Å
constraining bond 4 62 to    5.2895455 Å, actual value:    5.3743573 Å
constraining bond 62 59 to    1.9336490 Å, actual value:    1.9336491 Å
constraining bond 62 63 to    2.3211335 Å, actual value:    2.3211337 Å
constraining bond 62 64 to    2.3049702 Å, actual value:    2.3049704 Å
constraining bond 62 65 to    2.3039453 Å, actual value:    2.3039455 Å
constraining angle 2 4 5 to  107.9559647°, actual value:  107.9559647°
constraining angle 2 4 6 to   99.9470770°, actual value:   99.9470770°
constraining angle 2 4 7 to  104.5760655°, actual value:  104.5760655°
constraining angle 2 4 62 to   99.3530580°, actual value:   99.3530580°
constraining angle 5 4 6 to  147.1009611°, actual value:  147.1009611°
constraining angle 5 4 7 to   92.8656580°, actual value:   92.8656580°
constraining angle 5 4 62 to  117.0491922°, actual value:  117.0491922°
constraining angle 6 4 7 to   96.7136823°, actual value:   96.7136823°
constraining angle 6 4 62 to   39.2290219°, actual value:   39.2290219°
constraining angle 7 4 62 to  133.2525594°, actual value:  133.2525594°
constraining angle 4 62 59 to  101.9401765°, actual value:  101.9401765°
constraining angle 4 62 63 to   39.6440917°, actual value:   39.6440917°
constraining angle 4 62 64 to  118.1181686°, actual value:  118.1181686°
constraining angle 4 62 65 to  125.5267068°, actual value:  125.5267068°
constraining angle 59 62 63 to  105.0660685°, actual value:  105.0660685°
constraining angle 59 62 64 to  102.8996441°, actual value:  102.8996441°
constraining angle 59 62 65 to  108.5722237°, actual value:  108.5722237°
constraining angle 63 62 64 to  147.6453363°, actual value:  147.6453363°
constraining angle 63 62 65 to   88.4916622°, actual value:   88.4916622°
constraining angle 64 62 65 to   97.7709985°, actual value:   97.7709985°
constraining angle 5 4 2 1 to   87.7975131°, actual value:   87.7975131°
constraining angle 6 4 2 1 to  -74.5516433°, actual value:  -74.5516433°
constraining angle 7 4 2 1 to -174.2373115°, actual value: -174.2373115°
constraining angle 5 4 2 3 to  -90.5490876°, actual value:  -90.5490876°
constraining angle 6 4 2 3 to  107.1017559°, actual value:  107.1017559°
constraining angle 7 4 2 3 to    7.4160877°, actual value:    7.4160877°
constraining angle 63 62 59 60 to  -78.4895098°, actual value:  -78.4895098°
constraining angle 64 62 59 60 to   85.0715688°, actual value:   85.0715688°
constraining angle 65 62 59 60 to -172.0262559°, actual value: -172.0262559°
constraining angle 63 62 59 61 to  104.4430807°, actual value:  104.4430807°
constraining angle 64 62 59 61 to  -91.9958406°, actual value:  -91.9958406°
constraining angle 65 62 59 61 to   10.9063346°, actual value:   10.9063346°

           -------------------------------------------------
          |                Calculation Setup                |
           -------------------------------------------------

          program call               : xtb step_geom.sdf --input step_2.xcontrol --gfnff --opt
          hostname                   : c1-10
          coordinate file            : step_geom.sdf
          omp threads                :                    20


molecular fragmentation (1/2 indicates fragments):
111111111111111111111111111111111111111111111111111111111122222222222222
22222222222222222222222222222222222222222222
# atoms in fragment 1/2:    58    58
 fragment masses (1/2) :      466.43      466.43
CMA distance (Bohr)    :  14.974
constraining FC (au)   :  1.5000
########################################################################
[WARNING] Please study the warnings concerning your input carefully
-1- set_rdsetbl: Set-blocks will become obsolete in xtb 6.0 and newer
########################################################################
 
          ==================== Thresholds ====================
          CN  :   150.00000
          rep :   500.00000
          disp:  2500.00000
          HB1 :   250.00000
          HB2 :   450.00000
 
          Pauling EN used:
          Z : 1  EN :  2.20
          Z : 6  EN :  2.55
          Z :15  EN :  2.19
          Z :17  EN :  3.16
          Z :44  EN :  2.20
          electric field strengths (au): 0.000
 
           ------------------------------------------------- 
          |           Force Field Initialization            |
           ------------------------------------------------- 
 
          distances ...
          ----------------------------------------
          generating topology and atomic info file ...
          pair mat ...
          computing topology distances matrix with Floyd-Warshall algo ...
          making topology EEQ charges ...
          #fragments for EEQ constrain: 1
          ----------------------------------------
          generating topology and atomic info file ...
          pair mat ...
          computing topology distances matrix with Floyd-Warshall algo ...
          making topology EEQ charges ...
          #fragments for EEQ constrain: 1
          rings ...
          # BATM   1958
          # H in HB   0
 
  atom   neighbors  erfCN metchar sp-hybrid imet pi  qest     coordinates
    1  H       1    0.98   0.00         0    0    0   0.031   -1.977976    2.268805   -0.806535
    2  C       4    2.78   0.00         3    0    0  -0.075   -1.690360    1.848341    1.147631
    3  H       1    0.98   0.00         0    0    0   0.031    0.238294    2.169595    1.653321
    4  Ru      5    3.46   0.00         0    2    0   0.339   -4.325205    0.605846    3.359933
    5  Cl      1    0.97   0.00         0    0    0  -0.255   -4.387755   -3.727107    3.065892
    6  Cl      1    0.96   0.00         0    0    0  -0.255   -6.639364    4.303284    3.937055
    7  P       4    3.73   0.02         3    0    0  -0.003   -2.487635    0.529312    7.323823
    8  C       4    3.49   0.00         3    0    0  -0.029   -0.482069    3.312123    8.054202
    9  H       1    0.98   0.01         0    0    0   0.025    1.401421    2.818338    7.342720
   10  C       4    3.52   0.00         3    0    0  -0.039   -1.377232    5.703382    6.673190
   11  H       1    0.97   0.00         0    0    0   0.026   -1.506112    5.356996    4.632097
   12  H       1    0.97   0.00         0    0    0   0.026   -3.308155    6.151814    7.270532
   13  C       4    3.48   0.00         3    0    0  -0.041    0.373221    7.964440    7.233872
   14  H       1    0.97   0.00         0    0    0   0.027    2.255577    7.583282    6.453226
   15  H       1    0.97   0.01         0    0    0   0.027   -0.297254    9.670295    6.257450
   16  C       4    3.48   0.00         3    0    0  -0.037    0.592807    8.431769   10.099452
   17  H       1    0.97   0.00         0    0    0   0.026   -1.253455    9.014750   10.841359
   18  H       1    0.97   0.01         0    0    0   0.026    1.873097   10.019895   10.490626
   19  C       4    3.48   0.00         3    0    0  -0.041    1.473986    6.029171   11.488590
   20  H       1    0.97   0.01         0    0    0   0.027    1.602110    6.361574   13.534407
   21  H       1    0.97   0.00         0    0    0   0.027    3.398294    5.551637   10.883122
   22  C       4    3.52   0.00         3    0    0  -0.039   -0.298955    3.790224   10.912412
   23  H       1    0.97   0.00         0    0    0   0.026   -2.187547    4.209932   11.649973
   24  H       1    0.97   0.00         0    0    0   0.026    0.306892    2.077754   11.912267
   25  C       4    3.49   0.00         3    0    0  -0.029   -0.548776   -2.386724    7.398278
   26  H       1    0.98   0.01         0    0    0   0.025   -1.869695   -3.919103    6.948712
   27  C       4    3.53   0.00         3    0    0  -0.039    0.573154   -2.879376   10.024997
   28  H       1    0.97   0.00         0    0    0   0.026    1.882167   -1.342272   10.487035
   29  H       1    0.97   0.01         0    0    0   0.026   -0.906691   -2.823062   11.479141
   30  C       4    3.48   0.00         3    0    0  -0.041    2.018983   -5.408018   10.075642
   31  H       1    0.97   0.01         0    0    0   0.027    2.808133   -5.771035   11.961777
   32  H       1    0.97   0.00         0    0    0   0.027    0.692774   -6.961373    9.720751
   33  C       4    3.48   0.00         3    0    0  -0.037    4.108832   -5.440899    8.047021
   34  H       1    0.97   0.00         0    0    0   0.026    5.537275   -4.011889    8.512082
   35  H       1    0.97   0.01         0    0    0   0.026    5.118323   -7.255981    8.061005
   36  C       4    3.48   0.00         3    0    0  -0.041    3.017704   -4.886832    5.403294
   37  H       1    0.97   0.00         0    0    0   0.027    1.751209   -6.430360    4.845636
   38  H       1    0.97   0.01         0    0    0   0.027    4.524004   -4.862454    3.974094
   39  C       4    3.52   0.00         3    0    0  -0.039    1.536158   -2.376142    5.382129
   40  H       1    0.97   0.00         0    0    0   0.026    2.830243   -0.800488    5.747791
   41  H       1    0.97   0.00         0    0    0   0.026    0.723765   -2.013125    3.507899
   42  C       4    3.49   0.00         3    0    0  -0.029   -5.138732    0.185571    9.600187
   43  H       1    0.97   0.01         0    0    0   0.025   -4.257175    0.068219   11.471771
   44  C       4    3.52   0.00         3    0    0  -0.039   -6.936618    2.464959    9.541227
   45  H       1    0.97   0.00         0    0    0   0.026   -5.913520    4.231097    9.901787
   46  H       1    0.98   0.00         0    0    0   0.026   -7.701201    2.647128    7.627313
   47  C       4    3.48   0.00         3    0    0  -0.041   -9.149865    2.139170   11.403363
   48  H       1    0.97   0.01         0    0    0   0.027  -10.409178    3.789846   11.350073
   49  H       1    0.97   0.00         0    0    0   0.027   -8.412116    2.061691   13.339010
   50  C       4    3.48   0.00         3    0    0  -0.037  -10.615537   -0.306325   10.826808
   51  H       1    0.97   0.00         0    0    0   0.026  -11.467992   -0.163272    8.942184
   52  H       1    0.97   0.01         0    0    0   0.026  -12.206497   -0.545186   12.140357
   53  C       4    3.48   0.00         3    0    0  -0.041   -8.842218   -2.612168   10.907499
   54  H       1    0.97   0.00         0    0    0   0.027   -8.123744   -2.858400   12.836343
   55  H       1    0.97   0.01         0    0    0   0.027   -9.883835   -4.356197   10.476075
   56  C       4    3.53   0.00         3    0    0  -0.039   -6.595522   -2.275797    9.080134
   57  H       1    0.97   0.00         0    0    0   0.026   -7.288296   -2.244428    7.126913
   58  H       1    0.97   0.01         0    0    0   0.026   -5.319201   -3.908710    9.186337
   59  C       4    2.78   0.00         3    0    0  -0.075  -10.693582    7.505614   -3.249951
   60  H       1    0.98   0.00         0    0    0   0.031   -8.856768    8.327078   -3.078742
   61  H       1    0.98   0.00         0    0    0   0.031  -11.490480    7.966518   -5.046703
   62  Ru      5    3.46   0.00         0    2    0   0.339  -12.252984    5.614565   -0.539895
   63  Cl      1    1.00   0.00         0    0    0  -0.255  -10.359290    1.660313   -0.672176
   64  Cl      1    0.96   0.00         0    0    0  -0.255  -14.105105    8.728267    1.878199
   65  P       4    3.72   0.02         3    0    0  -0.003  -15.906581    3.788145   -2.046951
   66  C       4    3.49   0.00         3    0    0  -0.029  -16.846530    1.483813    0.471676
   67  H       1    0.97   0.01         0    0    0   0.025  -18.915781    1.403311    0.385126
   68  C       4    3.52   0.00         3    0    0  -0.039  -15.815685   -1.192039   -0.017008
   69  H       1    0.97   0.00         0    0    0   0.026  -16.457058   -1.892750   -1.860813
   70  H       1    0.97   0.00         0    0    0   0.026  -13.750970   -1.103789   -0.137194
   71  C       4    3.48   0.00         3    0    0  -0.041  -16.587449   -3.055309    2.088336
   72  H       1    0.97   0.00         0    0    0   0.027  -18.645361   -3.303997    2.062069
   73  H       1    0.97   0.01         0    0    0   0.027  -15.796410   -4.940689    1.724186
   74  C       4    3.48   0.00         3    0    0  -0.037  -15.767308   -2.084179    4.705418
   75  H       1    0.97   0.00         0    0    0   0.026  -13.696735   -2.001787    4.784787
   76  H       1    0.97   0.01         0    0    0   0.026  -16.329879   -3.410011    6.201892
   77  C       4    3.48   0.00         3    0    0  -0.041  -16.855412    0.567485    5.201282
   78  H       1    0.97   0.01         0    0    0   0.027  -16.286416    1.268384    7.071544
   79  H       1    0.97   0.00         0    0    0   0.027  -18.925229    0.465817    5.248714
   80  C       4    3.52   0.00         3    0    0  -0.039  -16.029980    2.409779    3.105954
   81  H       1    0.97   0.00         0    0    0   0.026  -13.963942    2.563036    3.142804
   82  H       1    0.97   0.00         0    0    0   0.026  -16.731446    4.327095    3.469537
   83  C       4    3.49   0.00         3    0    0  -0.029  -15.336261    1.992338   -5.011932
   84  H       1    0.98   0.01         0    0    0   0.025  -14.267243    0.318797   -4.418747
   85  C       4    3.51   0.00         3    0    0  -0.039  -13.722813    3.382988   -6.980459
   86  H       1    0.97   0.00         0    0    0   0.026  -14.675235    5.132874   -7.537362
   87  H       1    0.97   0.00         0    0    0   0.026  -11.913967    3.949906   -6.141610
   88  C       4    3.48   0.00         3    0    0  -0.041  -13.275326    1.723241   -9.336003
   89  H       1    0.97   0.01         0    0    0   0.027  -12.155852    2.749740  -10.752542
   90  H       1    0.97   0.00         0    0    0   0.027  -12.124861    0.081825   -8.807447
   91  C       4    3.48   0.00         3    0    0  -0.037  -15.793386    0.808425  -10.478720
   92  H       1    0.97   0.00         0    0    0   0.026  -16.848420    2.439447  -11.203997
   93  H       1    0.97   0.01         0    0    0   0.026  -15.456259   -0.409504  -12.126939
   94  C       4    3.48   0.00         3    0    0  -0.041  -17.407023   -0.572209   -8.486571
   95  H       1    0.97   0.00         0    0    0   0.027  -16.429090   -2.298096   -7.885071
   96  H       1    0.97   0.01         0    0    0   0.027  -19.210011   -1.207157   -9.298019
   97  C       4    3.53   0.00         3    0    0  -0.039  -17.853566    1.137615   -6.171468
   98  H       1    0.97   0.00         0    0    0   0.026  -18.913513    2.814558   -6.770700
   99  H       1    0.97   0.01         0    0    0   0.026  -19.043148    0.206358   -4.747181
  100  C       4    3.49   0.00         3    0    0  -0.029  -18.465081    6.156539   -2.484423
  101  H       1    0.97   0.01         0    0    0   0.025  -19.873494    5.233030   -3.690635
  102  C       4    3.52   0.00         3    0    0  -0.039  -19.747449    6.864052    0.023433
  103  H       1    0.97   0.00         0    0    0   0.026  -20.481230    5.171991    0.973398
  104  H       1    0.97   0.00         0    0    0   0.026  -18.324674    7.654147    1.301832
  105  C       4    3.48   0.00         3    0    0  -0.041  -21.870745    8.817651   -0.379268
  106  H       1    0.97   0.01         0    0    0   0.027  -22.762129    9.319373    1.428255
  107  H       1    0.97   0.00         0    0    0   0.027  -23.376668    7.968219   -1.522930
  108  C       4    3.48   0.00         3    0    0  -0.037  -20.855584   11.189068   -1.726076
  109  H       1    0.97   0.00         0    0    0   0.026  -19.473061   12.131286   -0.501344
  110  H       1    0.97   0.01         0    0    0   0.026  -22.371712   12.577261   -2.024086
  111  C       4    3.48   0.00         3    0    0  -0.041  -19.582854   10.484767   -4.246782
  112  H       1    0.97   0.00         0    0    0   0.027  -21.002038    9.696185   -5.535953
  113  H       1    0.97   0.01         0    0    0   0.027  -18.844538   12.175505   -5.199770
  114  C       4    3.53   0.00         3    0    0  -0.039  -17.467117    8.524932   -3.830097
  115  H       1    0.97   0.00         0    0    0   0.026  -15.967052    9.365105   -2.673396
  116  H       1    0.97   0.00         0    0    0   0.026  -16.566851    8.018297   -5.627226
 
          #atoms :   116
          #bonds :   122
          #angl  :   260
          #tors  :   411
          #nmol  :   1
          #optfrag :   1
           ------------------------------------------------- 
          |                   G F N - F F                   |
          |          A general generic force-field          |
          |                  Version 1.0.3                  | 
           ------------------------------------------------- 
          Number of HB bonds (bound hydrogen)     0
          Number of HB bonds (unbound hydrogen)   0
          Number of XB bonds                      0

 E+G (total)                   0 d,  0 h,  0 min,  0.008 sec
 distance/D3 list               ...        0 min,  0.000 sec (  0.258%)
 non bonded repulsion           ...        0 min,  0.001 sec (  8.965%)
 dCN                            ...        0 min,  0.000 sec (  2.088%)
 EEQ energy and q               ...        0 min,  0.001 sec ( 14.659%)
 D3                             ...        0 min,  0.000 sec (  5.989%)
 EEQ gradient                   ...        0 min,  0.000 sec (  2.190%)
 bonds                          ...        0 min,  0.000 sec (  4.690%)
 bend and torsion               ...        0 min,  0.001 sec (  6.968%)
 bonded ATM                     ...        0 min,  0.004 sec ( 53.586%)
 HB/XB (incl list setup)        ...        0 min,  0.000 sec (  0.230%)

         :::::::::::::::::::::::::::::::::::::::::::::::::::::
         ::                     SUMMARY                     ::
         :::::::::::::::::::::::::::::::::::::::::::::::::::::
         :: total energy             -16.645783545106 Eh    ::
         :: gradient norm              1.424857425332 Eh/a0 ::
         ::.................................................::
         :: bond energy              -17.653862145309 Eh    ::
         :: angle energy               0.065391921458 Eh    ::
         :: torsion energy             0.061339814330 Eh    ::
         :: repulsion energy           1.019688862853 Eh    ::
         :: electrostat energy        -0.144422547320 Eh    ::
         :: dispersion energy         -0.146858249972 Eh    ::
         :: HB energy                  0.000000000000 Eh    ::
         :: XB energy                  0.000000000000 Eh    ::
         :: bonded atm energy         -0.017680603866 Eh    ::
         :: external energy            0.000000000000 Eh    ::
         :: add. restraining           0.170619402721 Eh    ::
         :: total charge               0.000000000000 e     ::
         :::::::::::::::::::::::::::::::::::::::::::::::::::::

      ----------------------------------------------------------- 
     |                   =====================                   |
     |                        A N C O P T                        |
     |                   =====================                   |
     |               Approximate Normal Coordinate               |
     |                Rational Function Optimizer                |
      ----------------------------------------------------------- 
      ----------------------------------------------------------- 
     |                   =====================                   |
     |                        A N C O P T                        |
     |                   =====================                   |
     |               Approximate Normal Coordinate               |
     |                Rational Function Optimizer                |
      ----------------------------------------------------------- 

          ...................................................
          :                      SETUP                      :
          :.................................................:
          :   optimization level            normal          :
          :   max. optcycles                   348          :
          :   ANC micro-cycles                  20          :
          :   degrees of freedom               342          :
          :.................................................:
          :   RF solver                   davidson          :
          :   write xtbopt.log                true          :
          :   linear?                        false          :
          :   energy convergence         0.5000000E-05 Eh   :
          :   grad. convergence          0.1000000E-02 Eh/α :
          :   maxmium RF displ.          1.0000000          :
          :   Hlow (freq-cutoff)         0.1000000E-01      :
          :   Hmax (freq-cutoff)         5.0000000          :
          :   S6 in model hess.         20.0000000          :
          ...................................................

generating ANC from exact Hessian ...
Using GFN-FF Lindh-Hessian
 Shifting diagonal of input Hessian by   9.970139973016455E-003
 Lowest  eigenvalues of input Hessian
    0.000000    0.000000    0.000000    0.000000    0.000000    0.000000
    0.010000    0.010014    0.010018    0.010077    0.010169    0.010258
    0.010276    0.010304    0.010316    0.010341    0.010366    0.010459
 Highest eigenvalues
    8.034051    8.381577    8.593925   10.282407   11.228862   14.573668
 

........................................................................
.............................. CYCLE    1 ..............................
........................................................................
     iter. time                 ...        0 min,  0.008 sec
 * total energy  :   -16.6457835 Eh     change        0.0000000E+00 Eh
   gradient norm :     1.4248574 Eh/α   predicted     0.0000000E+00 (    NaN%)
   displ. norm   :     0.3356685 α      lambda       -0.4252719E+00
   maximum displ.:     0.2160960 α      in ANC's #341, #334, #218, ...

........................................................................
.............................. CYCLE    2 ..............................
........................................................................
     iter. time                 ...        0 min,  0.006 sec
 * total energy  :   -16.7521180 Eh     change       -0.1063345E+00 Eh
   gradient norm :     1.0831330 Eh/α   predicted    -0.2365949E+00 ( 122.50%)
   displ. norm   :     0.1740144 α      lambda       -0.1305359E+00
   maximum displ.:     0.1057063 α      in ANC's #341, #218, #213, ...

........................................................................
.............................. CYCLE    3 ..............................
........................................................................
     iter. time                 ...        0 min,  0.006 sec
 * total energy  :   -16.8129300 Eh     change       -0.6081198E-01 Eh
   gradient norm :     0.1492537 Eh/α   predicted    -0.6724822E-01 (  10.58%)
   displ. norm   :     0.0909731 α      lambda       -0.5018564E-02
   maximum displ.:     0.0416039 α      in ANC's #25, #135, #335, ...

........................................................................
.............................. CYCLE    4 ..............................
........................................................................
     iter. time                 ...        0 min,  0.006 sec
 * total energy  :   -16.8136850 Eh     change       -0.7550307E-03 Eh
   gradient norm :     0.1793296 Eh/α   predicted    -0.2501999E-02 ( 231.38%)
   displ. norm   :     0.0712478 α      lambda       -0.5840344E-02
   maximum displ.:     0.0369761 α      in ANC's #25, #44, #18, ...

........................................................................
.............................. CYCLE    5 ..............................
........................................................................
     iter. time                 ...        0 min,  0.004 sec
 * total energy  :   -16.8148451 Eh     change       -0.1160101E-02 Eh
   gradient norm :     0.0532346 Eh/α   predicted    -0.1462314E-02 (  26.05%)
   displ. norm   :     0.0531341 α      lambda       -0.1531329E-02
   maximum displ.:     0.0292594 α      in ANC's #25, #18, #22, ...

........................................................................
.............................. CYCLE    6 ..............................
........................................................................
     iter. time                 ...        0 min,  0.005 sec
 * total energy  :   -16.8150406 Eh     change       -0.1954603E-03 Eh
   gradient norm :     0.0262264 Eh/α   predicted    -0.2562152E-03 (  31.08%)
   displ. norm   :     0.0507102 α      lambda       -0.4958350E-03
   maximum displ.:     0.0280883 α      in ANC's #25, #18, #22, ...

........................................................................
.............................. CYCLE    7 ..............................
........................................................................
     iter. time                 ...        0 min,  0.004 sec
 * total energy  :   -16.8151180 Eh     change       -0.7740211E-04 Eh
   gradient norm :     0.0082820 Eh/α   predicted    -0.6223548E-04 ( -19.59%)
   displ. norm   :     0.0868977 α      lambda       -0.3798513E-03
   maximum displ.:     0.0456938 α      in ANC's #25, #18, #22, ...

........................................................................
.............................. CYCLE    8 ..............................
........................................................................
     iter. time                 ...        0 min,  0.005 sec
 * total energy  :   -16.8151678 Eh     change       -0.4980525E-04 Eh
   gradient norm :     0.0103658 Eh/α   predicted    -0.3853854E-04 ( -22.62%)
   displ. norm   :     0.1300117 α      lambda       -0.4324514E-03
   maximum displ.:     0.0640728 α      in ANC's #25, #18, #22, ...

........................................................................
.............................. CYCLE    9 ..............................
........................................................................
     iter. time                 ...        0 min,  0.004 sec
 * total energy  :   -16.8152083 Eh     change       -0.4050920E-04 Eh
   gradient norm :     0.0091490 Eh/α   predicted    -0.3719890E-04 (  -8.17%)
   displ. norm   :     0.0673552 α      lambda       -0.1677447E-03
   maximum displ.:     0.0264628 α      in ANC's #18, #6, #25, ...

........................................................................
.............................. CYCLE   10 ..............................
........................................................................
     iter. time                 ...        0 min,  0.003 sec
 * total energy  :   -16.8152247 Eh     change       -0.1638036E-04 Eh
   gradient norm :     0.0023810 Eh/α   predicted    -0.1252578E-04 ( -23.53%)
   displ. norm   :     0.0491675 α      lambda       -0.1059756E-03
   maximum displ.:     0.0211986 α      in ANC's #6, #1, #18, ...

........................................................................
.............................. CYCLE   11 ..............................
........................................................................
     iter. time                 ...        0 min,  0.003 sec
 * total energy  :   -16.8152353 Eh     change       -0.1058887E-04 Eh
   gradient norm :     0.0030157 Eh/α   predicted    -0.6924743E-05 ( -34.60%)
   displ. norm   :     0.0760665 α      lambda       -0.1687810E-03
   maximum displ.:     0.0347115 α      in ANC's #1, #6, #10, ...

........................................................................
.............................. CYCLE   12 ..............................
........................................................................
     iter. time                 ...        0 min,  0.003 sec
 * total energy  :   -16.8152476 Eh     change       -0.1236155E-04 Eh
   gradient norm :     0.0042833 Eh/α   predicted    -0.8846119E-05 ( -28.44%)
   displ. norm   :     0.0744961 α      lambda       -0.1267768E-03
   maximum displ.:     0.0367928 α      in ANC's #1, #6, #10, ...

........................................................................
.............................. CYCLE   13 ..............................
........................................................................
     iter. time                 ...        0 min,  0.003 sec
 * total energy  :   -16.8152562 Eh     change       -0.8575868E-05 Eh
   gradient norm :     0.0028825 Eh/α   predicted    -0.6024570E-05 ( -29.75%)
   displ. norm   :     0.0626462 α      lambda       -0.8977520E-04
   maximum displ.:     0.0336358 α      in ANC's #1, #6, #10, ...

........................................................................
.............................. CYCLE   14 ..............................
........................................................................
     iter. time                 ...        0 min,  0.003 sec
 * total energy  :   -16.8152622 Eh     change       -0.5974953E-05 Eh
   gradient norm :     0.0008951 Eh/α   predicted    -0.3926091E-05 ( -34.29%)
   displ. norm   :     0.0890247 α      lambda       -0.9272637E-04
   maximum displ.:     0.0503210 α      in ANC's #1, #6, #10, ...

........................................................................
.............................. CYCLE   15 ..............................
........................................................................
     iter. time                 ...        0 min,  0.003 sec
 * total energy  :   -16.8152693 Eh     change       -0.7107144E-05 Eh
   gradient norm :     0.0025907 Eh/α   predicted    -0.3462434E-05 ( -51.28%)
   displ. norm   :     0.0470383 α      lambda       -0.7821734E-04
   maximum displ.:     0.0268087 α      in ANC's #1, #6, #5, ...

........................................................................
.............................. CYCLE   16 ..............................
........................................................................
     iter. time                 ...        0 min,  0.003 sec
 * total energy  :   -16.8152741 Eh     change       -0.4800213E-05 Eh
   gradient norm :     0.0024029 Eh/α   predicted    -0.2727020E-05 ( -43.19%)
   displ. norm   :     0.0924375 α      lambda       -0.1778691E-03
   maximum displ.:     0.0512659 α      in ANC's #1, #6, #5, ...

........................................................................
.............................. CYCLE   17 ..............................
........................................................................
     iter. time                 ...        0 min,  0.003 sec
 * total energy  :   -16.8152819 Eh     change       -0.7819842E-05 Eh
   gradient norm :     0.0012803 Eh/α   predicted    -0.5659474E-05 ( -27.63%)
   displ. norm   :     0.1371190 α      lambda       -0.1114396E-03
   maximum displ.:     0.0769278 α      in ANC's #1, #6, #5, ...

........................................................................
.............................. CYCLE   18 ..............................
........................................................................
     iter. time                 ...        0 min,  0.003 sec
 * total energy  :   -16.8152881 Eh     change       -0.6160107E-05 Eh
   gradient norm :     0.0011539 Eh/α   predicted    -0.3337454E-05 ( -45.82%)
   displ. norm   :     0.0731914 α      lambda       -0.6231178E-04
   maximum displ.:     0.0419538 α      in ANC's #1, #6, #5, ...

........................................................................
.............................. CYCLE   19 ..............................
........................................................................
     iter. time                 ...        0 min,  0.003 sec
 * total energy  :   -16.8152929 Eh     change       -0.4835151E-05 Eh
   gradient norm :     0.0011122 Eh/α   predicted    -0.1810376E-05 ( -62.56%)
   displ. norm   :     0.1169267 α      lambda       -0.1311033E-03
   maximum displ.:     0.0676407 α      in ANC's #1, #5, #10, ...

........................................................................
.............................. CYCLE   20 ..............................
........................................................................
     iter. time                 ...        0 min,  0.003 sec
 * total energy  :   -16.8153005 Eh     change       -0.7573479E-05 Eh
   gradient norm :     0.0006690 Eh/α   predicted    -0.3658556E-05 ( -51.69%)
   displ. norm   :     0.0965430 α      lambda       -0.6521376E-04
   maximum displ.:     0.0560303 α      in ANC's #1, #5, #3, ...
 * RMSD in coord.:     0.1038493 α      energy gain  -0.1695169E+00 Eh

generating ANC from exact Hessian ...
Using GFN-FF Lindh-Hessian
 Shifting diagonal of input Hessian by   9.978556951458399E-003
 Lowest  eigenvalues of input Hessian
    0.000000    0.000000    0.000000    0.000000    0.000000    0.000000
    0.010000    0.010006    0.010025    0.010037    0.010043    0.010253
    0.010276    0.010294    0.010311    0.010336    0.010365    0.010414
 Highest eigenvalues
    8.019637    8.305300    8.526047   10.272432   11.216913   14.561132
 

........................................................................
.............................. CYCLE   21 ..............................
........................................................................
     iter. time                 ...        0 min,  0.003 sec
 * total energy  :   -16.8153044 Eh     change       -0.3887742E-05 Eh
   gradient norm :     0.0007433 Eh/α   predicted     0.0000000E+00 (-100.00%)
   displ. norm   :     0.0275321 α      lambda        0.1168280E-06
   maximum displ.:     0.0250036 α      in ANC's #1, #19, #20, ...

   *** GEOMETRY OPTIMIZATION CONVERGED AFTER 21 ITERATIONS ***

------------------------------------------------------------------------
 total energy gain   :        -0.1695208 Eh     -106.3759 kcal/mol
 total RMSD          :         0.1038493 a0        0.0550 Å
 total power (kW/mol):       -21.1941361 (step)-3365.5461 (real)
------------------------------------------------------------------------

 ANCopt (total)                0 d,  0 h,  0 min,  0.132 sec
 optimizer setup                ...        0 min,  0.000 sec (  0.361%)
 model hessian                  ...        0 min,  0.007 sec (  5.509%)
 ANC generation                 ...        0 min,  0.029 sec ( 21.658%)
 coordinate transformation      ...        0 min,  0.001 sec (  0.481%)
 single point calculation       ...        0 min,  0.085 sec ( 64.509%)
 optimization log               ...        0 min,  0.004 sec (  2.650%)
 hessian update                 ...        0 min,  0.002 sec (  1.345%)
 rational function              ...        0 min,  0.004 sec (  2.930%)

================
 final structure:
================
 xtb: 6.7.1 (edcfbbe)
          02052616533D

116122  0     0  0            999 V2000
   -1.1327    1.2132   -0.4508 H   0  0  0  0  0  0  0  0  0  0  0  0
   -0.9684    0.9875    0.5809 C   0  0  0  0  0  0  0  0  0  0  0  0
    0.0542    1.1608    0.8382 H   0  0  0  0  0  0  0  0  0  0  0  0
   -2.3433    0.3185    1.7722 Ru  0  0  0  0  0  0  0  0  0  0  0  0
   -2.3749   -1.9743    1.6068 Cl  0  0  0  0  0  0  0  0  0  0  0  0
   -3.5756    2.2671    2.0966 Cl  0  0  0  0  0  0  0  0  0  0  0  0
   -1.3501    0.2775    3.8590 P   0  0  0  0  0  4  0  0  0  0  0  0
   -0.2842    1.7513    4.2247 C   0  0  0  0  0  0  0  0  0  0  0  0
    0.7035    1.4964    3.8212 H   0  0  0  0  0  0  0  0  0  0  0  0
   -0.7825    3.0184    3.5127 C   0  0  0  0  0  0  0  0  0  0  0  0
   -0.8748    2.8414    2.4333 H   0  0  0  0  0  0  0  0  0  0  0  0
   -1.7984    3.2468    3.8534 H   0  0  0  0  0  0  0  0  0  0  0  0
    0.1422    4.2194    3.7953 C   0  0  0  0  0  0  0  0  0  0  0  0
    1.1301    4.0259    3.3595 H   0  0  0  0  0  0  0  0  0  0  0  0
   -0.2291    5.1227    3.2915 H   0  0  0  0  0  0  0  0  0  0  0  0
    0.2903    4.4586    5.3102 C   0  0  0  0  0  0  0  0  0  0  0  0
   -0.6808    4.7544    5.7265 H   0  0  0  0  0  0  0  0  0  0  0  0
    0.9642    5.3043    5.5075 H   0  0  0  0  0  0  0  0  0  0  0  0
    0.7848    3.1867    6.0256 C   0  0  0  0  0  0  0  0  0  0  0  0
    0.8767    3.3566    7.1075 H   0  0  0  0  0  0  0  0  0  0  0  0
    1.7972    2.9445    5.6794 H   0  0  0  0  0  0  0  0  0  0  0  0
   -0.1508    1.9959    5.7358 C   0  0  0  0  0  0  0  0  0  0  0  0
   -1.1417    2.2066    6.1531 H   0  0  0  0  0  0  0  0  0  0  0  0
    0.1903    1.0891    6.2509 H   0  0  0  0  0  0  0  0  0  0  0  0
   -0.3270   -1.2676    3.8798 C   0  0  0  0  0  0  0  0  0  0  0  0
   -1.0291   -2.0772    3.6462 H   0  0  0  0  0  0  0  0  0  0  0  0
    0.2821   -1.5390    5.2612 C   0  0  0  0  0  0  0  0  0  0  0  0
    0.9831   -0.7314    5.5010 H   0  0  0  0  0  0  0  0  0  0  0  0
   -0.4914   -1.5085    6.0403 H   0  0  0  0  0  0  0  0  0  0  0  0
    1.0396   -2.8819    5.2718 C   0  0  0  0  0  0  0  0  0  0  0  0
    1.4694   -3.0798    6.2636 H   0  0  0  0  0  0  0  0  0  0  0  0
    0.3308   -3.6992    5.0900 H   0  0  0  0  0  0  0  0  0  0  0  0
    2.1319   -2.9011    4.1843 C   0  0  0  0  0  0  0  0  0  0  0  0
    2.8967   -2.1523    4.4255 H   0  0  0  0  0  0  0  0  0  0  0  0
    2.6579   -3.8662    4.1790 H   0  0  0  0  0  0  0  0  0  0  0  0
    1.5399   -2.5950    2.7942 C   0  0  0  0  0  0  0  0  0  0  0  0
    0.8602   -3.4051    2.5024 H   0  0  0  0  0  0  0  0  0  0  0  0
    2.3276   -2.5829    2.0282 H   0  0  0  0  0  0  0  0  0  0  0  0
    0.7649   -1.2610    2.8009 C   0  0  0  0  0  0  0  0  0  0  0  0
    1.4573   -0.4334    2.9936 H   0  0  0  0  0  0  0  0  0  0  0  0
    0.3263   -1.0583    1.8151 H   0  0  0  0  0  0  0  0  0  0  0  0
   -2.7371    0.0947    5.0852 C   0  0  0  0  0  0  0  0  0  0  0  0
   -2.2575    0.0171    6.0683 H   0  0  0  0  0  0  0  0  0  0  0  0
   -3.6785    1.3095    5.0823 C   0  0  0  0  0  0  0  0  0  0  0  0
   -3.1271    2.2359    5.2839 H   0  0  0  0  0  0  0  0  0  0  0  0
   -4.0910    1.4266    4.0751 H   0  0  0  0  0  0  0  0  0  0  0  0
   -4.8413    1.1327    6.0770 C   0  0  0  0  0  0  0  0  0  0  0  0
   -5.5008    2.0118    6.0688 H   0  0  0  0  0  0  0  0  0  0  0  0
   -4.4409    1.0736    7.0966 H   0  0  0  0  0  0  0  0  0  0  0  0
   -5.6307   -0.1505    5.7620 C   0  0  0  0  0  0  0  0  0  0  0  0
   -6.0881   -0.0584    4.7689 H   0  0  0  0  0  0  0  0  0  0  0  0
   -6.4687   -0.2786    6.4615 H   0  0  0  0  0  0  0  0  0  0  0  0
   -4.7019   -1.3785    5.7821 C   0  0  0  0  0  0  0  0  0  0  0  0
   -4.3125   -1.5229    6.7974 H   0  0  0  0  0  0  0  0  0  0  0  0
   -5.2630   -2.2943    5.5493 H   0  0  0  0  0  0  0  0  0  0  0  0
   -3.5218   -1.1985    4.8047 C   0  0  0  0  0  0  0  0  0  0  0  0
   -3.8993   -1.1676    3.7754 H   0  0  0  0  0  0  0  0  0  0  0  0
   -2.8526   -2.0684    4.8441 H   0  0  0  0  0  0  0  0  0  0  0  0
   -5.5982    3.9396   -1.6735 C   0  0  0  0  0  0  0  0  0  0  0  0
   -4.6218    4.3623   -1.5724 H   0  0  0  0  0  0  0  0  0  0  0  0
   -6.0063    4.1878   -2.6291 H   0  0  0  0  0  0  0  0  0  0  0  0
   -6.4579    2.9491   -0.2491 Ru  0  0  0  0  0  0  0  0  0  0  0  0
   -5.4779    0.8455   -0.3049 Cl  0  0  0  0  0  0  0  0  0  0  0  0
   -7.4285    4.6067    1.0255 Cl  0  0  0  0  0  0  0  0  0  0  0  0
   -8.3935    2.0015   -1.0620 P   0  0  0  0  0  4  0  0  0  0  0  0
   -8.9079    0.7781    0.2639 C   0  0  0  0  0  0  0  0  0  0  0  0
  -10.0033    0.7484    0.2182 H   0  0  0  0  0  0  0  0  0  0  0  0
   -8.3788   -0.6422   -0.0052 C   0  0  0  0  0  0  0  0  0  0  0  0
   -8.7245   -1.0024   -0.9826 H   0  0  0  0  0  0  0  0  0  0  0  0
   -7.2859   -0.6071   -0.0710 H   0  0  0  0  0  0  0  0  0  0  0  0
   -8.7953   -1.6314    1.1031 C   0  0  0  0  0  0  0  0  0  0  0  0
   -9.8858   -1.7506    1.0913 H   0  0  0  0  0  0  0  0  0  0  0  0
   -8.3887   -2.6326    0.9029 H   0  0  0  0  0  0  0  0  0  0  0  0
   -8.3524   -1.1315    2.4903 C   0  0  0  0  0  0  0  0  0  0  0  0
   -7.2561   -1.0968    2.5286 H   0  0  0  0  0  0  0  0  0  0  0  0
   -8.6526   -1.8361    3.2786 H   0  0  0  0  0  0  0  0  0  0  0  0
   -8.9153    0.2747    2.7635 C   0  0  0  0  0  0  0  0  0  0  0  0
   -8.6109    0.6355    3.7559 H   0  0  0  0  0  0  0  0  0  0  0  0
  -10.0110    0.2304    2.7886 H   0  0  0  0  0  0  0  0  0  0  0  0
   -8.4702    1.2534    1.6614 C   0  0  0  0  0  0  0  0  0  0  0  0
   -7.3763    1.3240    1.6805 H   0  0  0  0  0  0  0  0  0  0  0  0
   -8.8316    2.2699    1.8619 H   0  0  0  0  0  0  0  0  0  0  0  0
   -8.0933    1.0585   -2.6352 C   0  0  0  0  0  0  0  0  0  0  0  0
   -7.5421    0.1630   -2.3234 H   0  0  0  0  0  0  0  0  0  0  0  0
   -7.2220    1.7893   -3.6662 C   0  0  0  0  0  0  0  0  0  0  0  0
   -7.7105    2.7247   -3.9574 H   0  0  0  0  0  0  0  0  0  0  0  0
   -6.2636    2.0723   -3.2138 H   0  0  0  0  0  0  0  0  0  0  0  0
   -6.9890    0.9166   -4.9174 C   0  0  0  0  0  0  0  0  0  0  0  0
   -6.3848    1.4572   -5.6593 H   0  0  0  0  0  0  0  0  0  0  0  0
   -6.3934    0.0381   -4.6401 H   0  0  0  0  0  0  0  0  0  0  0  0
   -8.3237    0.4543   -5.5344 C   0  0  0  0  0  0  0  0  0  0  0  0
   -8.8675    1.3270   -5.9173 H   0  0  0  0  0  0  0  0  0  0  0  0
   -8.1475   -0.1879   -6.4088 H   0  0  0  0  0  0  0  0  0  0  0  0
   -9.1951   -0.2709   -4.4908 C   0  0  0  0  0  0  0  0  0  0  0  0
   -8.6929   -1.1936   -4.1750 H   0  0  0  0  0  0  0  0  0  0  0  0
  -10.1510   -0.5902   -4.9289 H   0  0  0  0  0  0  0  0  0  0  0  0
   -9.4272    0.6291   -3.2612 C   0  0  0  0  0  0  0  0  0  0  0  0
   -9.9730    1.5266   -3.5762 H   0  0  0  0  0  0  0  0  0  0  0  0
  -10.0689    0.1403   -2.5151 H   0  0  0  0  0  0  0  0  0  0  0  0
   -9.7330    3.2707   -1.2895 C   0  0  0  0  0  0  0  0  0  0  0  0
  -10.4835    2.7988   -1.9341 H   0  0  0  0  0  0  0  0  0  0  0  0
  -10.4099    3.6419    0.0398 C   0  0  0  0  0  0  0  0  0  0  0  0
  -10.8142    2.7480    0.5323 H   0  0  0  0  0  0  0  0  0  0  0  0
   -9.6521    4.0399    0.7228 H   0  0  0  0  0  0  0  0  0  0  0  0
  -11.5147    4.6976   -0.1639 C   0  0  0  0  0  0  0  0  0  0  0  0
  -11.9857    4.9591    0.7940 H   0  0  0  0  0  0  0  0  0  0  0  0
  -12.3162    4.2697   -0.7785 H   0  0  0  0  0  0  0  0  0  0  0  0
  -10.9522    5.9512   -0.8586 C   0  0  0  0  0  0  0  0  0  0  0  0
  -10.2098    6.4244   -0.2037 H   0  0  0  0  0  0  0  0  0  0  0  0
  -11.7388    6.7046   -1.0057 H   0  0  0  0  0  0  0  0  0  0  0  0
  -10.2859    5.5824   -2.1971 C   0  0  0  0  0  0  0  0  0  0  0  0
  -11.0442    5.1864   -2.8837 H   0  0  0  0  0  0  0  0  0  0  0  0
   -9.8792    6.4760   -2.6908 H   0  0  0  0  0  0  0  0  0  0  0  0
   -9.1848    4.5231   -1.9890 C   0  0  0  0  0  0  0  0  0  0  0  0
   -8.3829    4.9475   -1.3732 H   0  0  0  0  0  0  0  0  0  0  0  0
   -8.7132    4.2570   -2.9430 H   0  0  0  0  0  0  0  0  0  0  0  0
  1  2  1  0  0  0  0
  2  3  1  0  0  0  0
  4  2  1  0  0  0  0
  4  5  1  0  0  0  0
  4  6  1  0  0  0  0
  4  7  1  0  0  0  0
  8  7  1  0  0  0  0
  9  8  1  0  0  0  0
 10  8  1  0  0  0  0
 11 10  1  0  0  0  0
 12 10  1  0  0  0  0
 13 10  1  0  0  0  0
 14 13  1  0  0  0  0
 15 13  1  0  0  0  0
 16 13  1  0  0  0  0
 16 17  1  0  0  0  0
 18 16  1  0  0  0  0
 19 16  1  0  0  0  0
 20 19  1  0  0  0  0
 21 19  1  0  0  0  0
 22  8  1  0  0  0  0
 23 22  1  0  0  0  0
 24 22  1  0  0  0  0
 25  7  1  0  0  0  0
 26 25  1  0  0  0  0
 27 25  1  0  0  0  0
 28 27  1  0  0  0  0
 29 27  1  0  0  0  0
 30 27  1  0  0  0  0
 31 30  1  0  0  0  0
 32 30  1  0  0  0  0
 33 30  1  0  0  0  0
 33 34  1  0  0  0  0
 35 33  1  0  0  0  0
 33 36  1  0  0  0  0
 37 36  1  0  0  0  0
 38 36  1  0  0  0  0
 36 39  1  0  0  0  0
 40 39  1  0  0  0  0
 41 39  1  0  0  0  0
 42  7  1  0  0  0  0
 43 42  1  0  0  0  0
 44 42  1  0  0  0  0
 45 44  1  0  0  0  0
 46 44  1  0  0  0  0
 44 47  1  0  0  0  0
 48 47  1  0  0  0  0
 49 47  1  0  0  0  0
 47 50  1  0  0  0  0
 50 51  1  0  0  0  0
 52 50  1  0  0  0  0
 50 53  1  0  0  0  0
 54 53  1  0  0  0  0
 55 53  1  0  0  0  0
 53 56  1  0  0  0  0
 56 57  1  0  0  0  0
 58 56  1  0  0  0  0
 59  2  1  0  0  0  0
 59 60  1  0  0  0  0
 61 59  1  0  0  0  0
 59 62  1  0  0  0  0
 63 62  1  0  0  0  0
 62 64  1  0  0  0  0
 62 65  1  0  0  0  0
 66 65  1  0  0  0  0
 67 66  1  0  0  0  0
 68 66  1  0  0  0  0
 69 68  1  0  0  0  0
 70 68  1  0  0  0  0
 71 68  1  0  0  0  0
 72 71  1  0  0  0  0
 73 71  1  0  0  0  0
 74 71  1  0  0  0  0
 74 75  1  0  0  0  0
 76 74  1  0  0  0  0
 77 74  1  0  0  0  0
 78 77  1  0  0  0  0
 79 77  1  0  0  0  0
 80 66  1  0  0  0  0
 81 80  1  0  0  0  0
 82 80  1  0  0  0  0
 83 65  1  0  0  0  0
 84 83  1  0  0  0  0
 85 83  1  0  0  0  0
 86 85  1  0  0  0  0
 87 85  1  0  0  0  0
 88 85  1  0  0  0  0
 89 88  1  0  0  0  0
 90 88  1  0  0  0  0
 91 88  1  0  0  0  0
 91 92  1  0  0  0  0
 93 91  1  0  0  0  0
 91 94  1  0  0  0  0
 95 94  1  0  0  0  0
 96 94  1  0  0  0  0
 94 97  1  0  0  0  0
 98 97  1  0  0  0  0
 99 97  1  0  0  0  0
100 65  1  0  0  0  0
101100  1  0  0  0  0
102100  1  0  0  0  0
103102  1  0  0  0  0
104102  1  0  0  0  0
102105  1  0  0  0  0
106105  1  0  0  0  0
107105  1  0  0  0  0
105108  1  0  0  0  0
108109  1  0  0  0  0
110108  1  0  0  0  0
108111  1  0  0  0  0
112111  1  0  0  0  0
113111  1  0  0  0  0
111114  1  0  0  0  0
114115  1  0  0  0  0
116114  1  0  0  0  0
 80 77  1  0  0  0  0
 97 83  1  0  0  0  0
114100  1  0  0  0  0
 22 19  1  0  0  0  0
 39 25  1  0  0  0  0
 56 42  1  0  0  0  0
  4 62  1  0  0  0  0
M  END
$$$$
 
 Bond Distances (Angstroems)
 ---------------------------
H1-C2=1.0688         C2-H1=1.0688         C2-H3=1.0686         C2-Ru4=1.9383        H3-C2=1.0686         Ru4-C2=1.9383        
Ru4-Cl5=2.2990       Ru4-Cl6=2.3283       Ru4-P7=2.3115        Cl5-Ru4=2.2990       Cl6-Ru4=2.3283       P7-Ru4=2.3115        
P7-C8=1.8552         P7-C25=1.8533        P7-C42=1.8604        C8-P7=1.8552         C8-H9=1.0969         C8-C10=1.5364        
C8-C22=1.5366        H9-C8=1.0969         C10-C8=1.5364        C10-H11=1.0977       C10-H12=1.0956       C10-C13=1.5418       
H11-C10=1.0977       H12-C10=1.0956       C13-C10=1.5418       C13-H14=1.0970       C13-H15=1.0989       C13-C16=1.5407       
H14-C13=1.0970       H15-C13=1.0989       C16-C13=1.5407       C16-H17=1.0972       C16-H18=1.0991       C16-C19=1.5409       
H17-C16=1.0972       H18-C16=1.0991       C19-C16=1.5409       C19-H20=1.0990       C19-H21=1.0970       C19-C22=1.5419       
H20-C19=1.0990       H21-C19=1.0970       C22-C8=1.5366        C22-C19=1.5419       C22-H23=1.0956       C22-H24=1.0972       
H23-C22=1.0956       H24-C22=1.0972       C25-P7=1.8533        C25-H26=1.0968       C25-C27=1.5339       C25-C39=1.5351       
H26-C25=1.0968       C27-C25=1.5339       C27-H28=1.0960       C27-H29=1.0983       C27-C30=1.5418       H28-C27=1.0960       
H29-C27=1.0983       C30-C27=1.5418       C30-H31=1.0989       C30-H32=1.0970       C30-C33=1.5414       H31-C30=1.0989       
H32-C30=1.0970       C33-C30=1.5414       C33-H34=1.0971       C33-H35=1.0991       C33-C36=1.5416       H34-C33=1.0971       
H35-C33=1.0991       C36-C33=1.5416       C36-H37=1.0970       C36-H38=1.0989       C36-C39=1.5427       H37-C36=1.0970       
H38-C36=1.0989       C39-C25=1.5351       C39-C36=1.5427       C39-H40=1.0962       C39-H41=1.0979       H40-C39=1.0962       
H41-C39=1.0979       C42-P7=1.8604        C42-H43=1.0966       C42-C44=1.5368       C42-C56=1.5384       H43-C42=1.0966       
C44-C42=1.5368       C44-H45=1.0968       C44-H46=1.0947       C44-C47=1.5404       H45-C44=1.0968       H46-C44=1.0947       
C47-C44=1.5404       C47-H48=1.0990       C47-H49=1.0970       C47-C50=1.5391       H48-C47=1.0990       H49-C47=1.0970       
C50-C47=1.5391       C50-H51=1.0973       C50-H52=1.0991       C50-C53=1.5398       H51-C50=1.0973       H52-C50=1.0991       
C53-C50=1.5398       C53-H54=1.0970       C53-H55=1.0990       C53-C56=1.5429       H54-C53=1.0970       H55-C53=1.0990       
C56-C42=1.5384       C56-C53=1.5429       C56-H57=1.0968       C56-H58=1.0982       H57-C56=1.0968       H58-C56=1.0982       
C59-H60=1.0687       C59-H61=1.0683       C59-Ru62=1.9363      H60-C59=1.0687       H61-C59=1.0683       Ru62-C59=1.9363      
Ru62-Cl63=2.3213     Ru62-Cl64=2.3053     Ru62-P65=2.3033      Cl63-Ru62=2.3213     Cl64-Ru62=2.3053     P65-Ru62=2.3033      
P65-C66=1.8760       P65-C83=1.8586       P65-C100=1.8592      C66-P65=1.8760       C66-H67=1.0968       C66-C68=1.5394       
C66-C80=1.5397       H67-C66=1.0968       C68-C66=1.5394       C68-H69=1.0975       C68-H70=1.0954       C68-C71=1.5428       
H69-C68=1.0975       H70-C68=1.0954       C71-C68=1.5428       C71-H72=1.0970       C71-H73=1.0990       C71-C74=1.5396       
H72-C71=1.0970       H73-C71=1.0990       C74-C71=1.5396       C74-H75=1.0975       C74-H76=1.0991       C74-C77=1.5391       
H75-C74=1.0975       H76-C74=1.0991       C77-C74=1.5391       C77-H78=1.0990       C77-H79=1.0969       C77-C80=1.5397       
H78-C77=1.0990       H79-C77=1.0969       C80-C66=1.5397       C80-C77=1.5397       C80-H81=1.0964       C80-H82=1.0973       
H81-C80=1.0964       H82-C80=1.0973       C83-P65=1.8586       C83-H84=1.0967       C83-C85=1.5350       C83-C97=1.5348       
H84-C83=1.0967       C85-C83=1.5350       C85-H86=1.0947       C85-H87=1.0970       C85-C88=1.5432       H86-C85=1.0947       
H87-C85=1.0970       C88-C85=1.5432       C88-H89=1.0990       C88-H90=1.0970       C88-C91=1.5413       H89-C88=1.0990       
H90-C88=1.0970       C91-C88=1.5413       C91-H92=1.0972       C91-H93=1.0991       C91-C94=1.5409       H92-C91=1.0972       
H93-C91=1.0991       C94-C91=1.5409       C94-H95=1.0969       C94-H96=1.0989       C94-C97=1.5413       H95-C94=1.0969       
H96-C94=1.0989       C97-C83=1.5348       C97-C94=1.5413       C97-H98=1.0967       C97-H99=1.0987       H98-C97=1.0967       
H99-C97=1.0987       C100-P65=1.8592      C100-H101=1.0962     C100-C102=1.5372     C100-C114=1.5356     H101-C100=1.0962     
C102-C100=1.5372     C102-H103=1.0978     C102-H104=1.0950     C102-C105=1.5416     H103-C102=1.0978     H104-C102=1.0950     
C105-C102=1.5416     C105-H106=1.0990     C105-H107=1.0970     C105-C108=1.5397     H106-C105=1.0990     H107-C105=1.0970     
C108-C105=1.5397     C108-H109=1.0973     C108-H110=1.0991     C108-C111=1.5400     H109-C108=1.0973     H110-C108=1.0991     
C111-C108=1.5400     C111-H112=1.0970     C111-H113=1.0989     C111-C114=1.5420     H112-C111=1.0970     H113-C111=1.0989     
C114-C100=1.5356     C114-C111=1.5420     C114-H115=1.0966     C114-H116=1.0970     H115-C114=1.0966     H116-C114=1.0970     
 C  H  Rav=1.0958 sigma=0.0068  Rmin=1.0683  Rmax=1.0991    70
 C  C  Rav=1.5396 sigma=0.0026  Rmin=1.5339  Rmax=1.5432    36
 P  C  Rav=1.8604 sigma=0.0074  Rmin=1.8533  Rmax=1.8760     6
 Ru C  Rav=1.9373 sigma=0.0010  Rmin=1.9363  Rmax=1.9383     2
 Ru P  Rav=2.3074 sigma=0.0041  Rmin=2.3033  Rmax=2.3115     2
 Ru Cl Rav=2.3135 sigma=0.0118  Rmin=2.2990  Rmax=2.3283     4
 
 selected bond angles (degree)
 --------------------
H3-C2-H1=110.21                Ru4-C2-H1=123.85               Ru4-C2-H3=125.93               Cl5-Ru4-C2=108.04              
Cl6-Ru4-C2= 99.92              Cl6-Ru4-Cl5=146.87             P7-Ru4-C2=104.84               P7-Ru4-Cl5= 93.05              
P7-Ru4-Cl6= 96.69              C8-P7-Ru4=114.25               C25-P7-Ru4=105.20              C25-P7-C8=110.06               
C42-P7-Ru4=106.05              C42-P7-C8=112.12               C42-P7-C25=108.80              H9-C8-P7=105.08                
C10-C8-P7=112.18               C10-C8-H9=108.25               C22-C8-P7=111.73               C22-C8-H9=108.69               
C22-C8-C10=110.64              H11-C10-C8=110.48              H12-C10-C8=109.18              H12-C10-H11=105.15             
C13-C10-C8=111.28              C13-C10-H11=110.87             C13-C10-H12=109.68             
 
 selected dihedral angles (degree)
 ---------------------------------
Cl5-Ru4-C2-H1= 87.57          Cl5-Ru4-C2-H3=269.22          Cl6-Ru4-C2-H1=285.57          Cl6-Ru4-C2-H3=107.22          
P7-Ru4-C2-H1=185.86           P7-Ru4-C2-H3=  7.51           C8-P7-Ru4-C2= 40.94           C8-P7-Ru4-Cl5=150.51          
C8-P7-Ru4-Cl6=298.79          C25-P7-Ru4-C2=280.13          C25-P7-Ru4-Cl5= 29.70         C25-P7-Ru4-Cl6=177.98         
C42-P7-Ru4-C2=164.94          C42-P7-Ru4-Cl5=274.51         C42-P7-Ru4-Cl6= 62.79         H9-C8-P7-Ru4=273.12           
H9-C8-P7-C25= 31.19           H9-C8-P7-C42=152.43           C10-C8-P7-Ru4= 30.52          C10-C8-P7-C25=148.59          
C10-C8-P7-C42=269.83          C22-C8-P7-Ru4=155.43          C22-C8-P7-C25=273.50          C22-C8-P7-C42= 34.74          
H11-C10-C8-P7=305.38          H11-C10-C8-H9= 60.87          H11-C10-C8-C22=179.88         H12-C10-C8-P7= 60.56          
H12-C10-C8-H9=176.05          H12-C10-C8-C22=295.06         C13-C10-C8-P7=181.77          C13-C10-C8-H9=297.26          
C13-C10-C8-C22= 56.26         
 
 CMA Distance (Angstroems)
 ---------------------------
R(CMA):  7.8460
           -------------------------------------------------
          |                Final Singlepoint                |
           -------------------------------------------------
         :::::::::::::::::::::::::::::::::::::::::::::::::::::
         ::                     SUMMARY                     ::
         :::::::::::::::::::::::::::::::::::::::::::::::::::::
         :: total energy             -16.815304367598 Eh    ::
         :: gradient norm              0.000748435505 Eh/a0 ::
         ::.................................................::
         :: bond energy              -17.653646597458 Eh    ::
         :: angle energy               0.065367542237 Eh    ::
         :: torsion energy             0.061316694807 Eh    ::
         :: repulsion energy           1.019517680260 Eh    ::
         :: electrostat energy        -0.144460781346 Eh    ::
         :: dispersion energy         -0.147184775419 Eh    ::
         :: HB energy                  0.000000000000 Eh    ::
         :: XB energy                  0.000000000000 Eh    ::
         :: bonded atm energy         -0.017676795007 Eh    ::
         :: external energy            0.000000000000 Eh    ::
         :: add. restraining           0.001462664329 Eh    ::
         :: total charge              -0.000000000000 e     ::
         :::::::::::::::::::::::::::::::::::::::::::::::::::::

           -------------------------------------------------
          |                Property Printout                |
           -------------------------------------------------

molecular dipole:
                 x           y           z       tot (Debye)
 q only:       -0.143      -0.104       0.207       0.692
           -------------------------------------------------
          |                Geometry Summary                 |
           -------------------------------------------------

      molecular mass/u    :      932.8529713
   center of mass at/Å    :       -4.8079501       1.2746304       1.3409537
  moments of inertia/u·Å² :        0.6233814E+04   0.2027084E+05   0.2119797E+05
rotational constants/cm⁻¹ :        0.2704225E-02   0.8316196E-03   0.7952475E-03

 * 108 selected distances

     #   Z          #   Z                                           value/Å
     1   1 H        2   6 C                                       1.0687956
     2   6 C        3   1 H                                       1.0686008
     2   6 C        4  44 Ru                                      1.9383421
     4  44 Ru       5  17 Cl                                      2.2990079
     4  44 Ru       6  17 Cl                                      2.3283066 (max)
     4  44 Ru       7  15 P                                       2.3115056
     7  15 P        8   6 C                                       1.8551832
     8   6 C        9   1 H                                       1.0969348
     8   6 C       10   6 C                                       1.5364370
    10   6 C       11   1 H                                       1.0977167
    10   6 C       12   1 H                                       1.0956204
    10   6 C       13   6 C                                       1.5418258
    13   6 C       14   1 H                                       1.0970428
    13   6 C       15   1 H                                       1.0989293
    16   6 C       17   1 H                                       1.0971866
    16   6 C       18   1 H                                       1.0991223
    19   6 C       20   1 H                                       1.0989734
    19   6 C       21   1 H                                       1.0969895
     8   6 C       22   6 C                                       1.5366116
    19   6 C       22   6 C                                       1.5418697
    22   6 C       23   1 H                                       1.0956331
    22   6 C       24   1 H                                       1.0971968
     7  15 P       25   6 C                                       1.8532563
    25   6 C       26   1 H                                       1.0968073
    25   6 C       27   6 C                                       1.5339245
    27   6 C       28   1 H                                       1.0959550
    27   6 C       29   1 H                                       1.0982704
    27   6 C       30   6 C                                       1.5418442
    30   6 C       31   1 H                                       1.0989104
    30   6 C       32   1 H                                       1.0969588
    33   6 C       34   1 H                                       1.0971223
    33   6 C       35   1 H                                       1.0991164
    36   6 C       37   1 H                                       1.0969976
    36   6 C       38   1 H                                       1.0988637
    25   6 C       39   6 C                                       1.5350767
    36   6 C       39   6 C                                       1.5427287
    39   6 C       40   1 H                                       1.0961532
    39   6 C       41   1 H                                       1.0978509
     7  15 P       42   6 C                                       1.8603643
    42   6 C       43   1 H                                       1.0965646
    42   6 C       44   6 C                                       1.5368249
    44   6 C       45   1 H                                       1.0967776
    44   6 C       46   1 H                                       1.0947258
    44   6 C       47   6 C                                       1.5403846
    47   6 C       48   1 H                                       1.0990369
    47   6 C       49   1 H                                       1.0969537
    47   6 C       50   6 C                                       1.5391143
    50   6 C       51   1 H                                       1.0972516
    50   6 C       52   1 H                                       1.0991058
    53   6 C       54   1 H                                       1.0969568
    53   6 C       55   1 H                                       1.0989657
    42   6 C       56   6 C                                       1.5384333
    53   6 C       56   6 C                                       1.5428542
    56   6 C       57   1 H                                       1.0968007
    56   6 C       58   1 H                                       1.0981911
    59   6 C       60   1 H                                       1.0687487
    59   6 C       61   1 H                                       1.0682829 (min)
    59   6 C       62  44 Ru                                      1.9362608
    62  44 Ru      63  17 Cl                                      2.3213148
    62  44 Ru      64  17 Cl                                      2.3052881
    62  44 Ru      65  15 P                                       2.3033256
    65  15 P       66   6 C                                       1.8760040
    66   6 C       67   1 H                                       1.0968000
    66   6 C       68   6 C                                       1.5393658
    68   6 C       69   1 H                                       1.0975438
    68   6 C       70   1 H                                       1.0954491
    71   6 C       72   1 H                                       1.0969920
    71   6 C       73   1 H                                       1.0990272
    74   6 C       75   1 H                                       1.0974672
    74   6 C       76   1 H                                       1.0990851
    74   6 C       77   6 C                                       1.5390927
    77   6 C       78   1 H                                       1.0989992
    77   6 C       79   1 H                                       1.0968789
    66   6 C       80   6 C                                       1.5396569
    77   6 C       80   6 C                                       1.5396574
    80   6 C       81   1 H                                       1.0963940
    80   6 C       82   1 H                                       1.0973243
    65  15 P       83   6 C                                       1.8586356
    83   6 C       84   1 H                                       1.0967482
    83   6 C       85   6 C                                       1.5350075
    85   6 C       86   1 H                                       1.0946716
    85   6 C       87   1 H                                       1.0969807
    88   6 C       89   1 H                                       1.0990038
    88   6 C       90   1 H                                       1.0969837
    91   6 C       92   1 H                                       1.0972119
    91   6 C       93   1 H                                       1.0991185
    94   6 C       95   1 H                                       1.0969272
    94   6 C       96   1 H                                       1.0988900
    83   6 C       97   6 C                                       1.5348431
    94   6 C       97   6 C                                       1.5413211
    97   6 C       98   1 H                                       1.0966706
    97   6 C       99   1 H                                       1.0987269
    65  15 P      100   6 C                                       1.8592123
   100   6 C      101   1 H                                       1.0962475
   100   6 C      102   6 C                                       1.5371827
   102   6 C      103   1 H                                       1.0977819
   102   6 C      104   1 H                                       1.0950291
   102   6 C      105   6 C                                       1.5416199
   105   6 C      106   1 H                                       1.0990022
   105   6 C      107   1 H                                       1.0969927
   108   6 C      109   1 H                                       1.0972604
   108   6 C      110   1 H                                       1.0990834
   111   6 C      112   1 H                                       1.0969839
   111   6 C      113   1 H                                       1.0989138
   100   6 C      114   6 C                                       1.5356130
   111   6 C      114   6 C                                       1.5419993
   114   6 C      115   1 H                                       1.0965508
   114   6 C      116   1 H                                       1.0970054

 * 6 distinct bonds (by element types)

   Z      Z             #   av. dist./Å        max./Å        min./Å
   1 H    6 C          70     1.0957836     1.0991223     1.0682829
   6 C    6 C          24     1.5388870     1.5428542     1.5339245
   6 C   15 P           6     1.8604426     1.8760040     1.8532563
   6 C   44 Ru          2     1.9373015     1.9383421     1.9362608
  15 P   44 Ru          2     2.3074156     2.3115056     2.3033256
  17 Cl  44 Ru          4     2.3134793     2.3283066     2.2990079


optimized geometry written to: xtbopt.sdf


           -------------------------------------------------
          | TOTAL ENERGY              -16.815304367598 Eh   |
          | GRADIENT NORM               0.000748435505 Eh/α |
           -------------------------------------------------
########################################################################
[WARNING] Runtime exception occurred
-1- gfnff_setup: Could not read topology file.
########################################################################

------------------------------------------------------------------------
 * finished run on 2026/02/05 at 16:53:51.746     
------------------------------------------------------------------------
 total:
 * wall-time:     0 d,  0 h,  0 min,  0.183 sec
 *  cpu-time:     0 d,  0 h,  0 min,  2.520 sec
 * ratio c/w:    13.796 speedup
 SCF:
 * wall-time:     0 d,  0 h,  0 min,  0.010 sec
 *  cpu-time:     0 d,  0 h,  0 min,  0.120 sec
 * ratio c/w:    11.904 speedup
 ANC optimizer:
 * wall-time:     0 d,  0 h,  0 min,  0.138 sec
 *  cpu-time:     0 d,  0 h,  0 min,  2.115 sec
 * ratio c/w:    15.283 speedup

normal termination of xtb
2.44user 0.08system 0:00.19elapsed 1331%CPU (0avgtext+0avgdata 70148maxresident)k
0inputs+10688outputs (24major+9155minor)pagefaults 0swaps
