116
 energy: -16.645783545106 gnorm: 1.424857425332 xtb: 6.7.1 (edcfbbe)
H           -1.04670000000000        1.20060000000000       -0.42680000000000
C           -0.89450000000000        0.97810000000000        0.60730000000000
H            0.12610000000000        1.14810000000000        0.87490000000000
Ru          -2.28880000000000        0.32060000000000        1.77800000000000
Cl          -2.32190000000000       -1.97230000000000        1.62240000000000
Cl          -3.51340000000000        2.27720000000000        2.08340000000000
P           -1.31640000000000        0.28010000000000        3.87560000000000
C           -0.25510000000000        1.75270000000000        4.26210000000000
H            0.74160000000000        1.49140000000000        3.88560000000000
C           -0.72880000000000        3.01810000000000        3.53130000000000
H           -0.79700000000000        2.83480000000000        2.45120000000000
H           -1.75060000000000        3.25540000000000        3.84740000000000
C            0.19750000000000        4.21460000000000        3.82800000000000
H            1.19360000000000        4.01290000000000        3.41490000000000
H           -0.15730000000000        5.11730000000000        3.31130000000000
C            0.31370000000000        4.46190000000000        5.34440000000000
H           -0.66330000000000        4.77040000000000        5.73700000000000
H            0.99120000000000        5.30230000000000        5.55140000000000
C            0.78000000000000        3.19050000000000        6.07950000000000
H            0.84780000000000        3.36640000000000        7.16210000000000
H            1.79830000000000        2.93780000000000        5.75910000000000
C           -0.15820000000000        2.00570000000000        5.77460000000000
H           -1.15760000000000        2.22780000000000        6.16490000000000
H            0.16240000000000        1.09950000000000        6.30370000000000
C           -0.29040000000000       -1.26300000000000        3.91500000000000
H           -0.98940000000000       -2.07390000000000        3.67710000000000
C            0.30330000000000       -1.52370000000000        5.30500000000000
H            0.99600000000000       -0.71030000000000        5.54950000000000
H           -0.47980000000000       -1.49390000000000        6.07450000000000
C            1.06840000000000       -2.86180000000000        5.33180000000000
H            1.48600000000000       -3.05390000000000        6.32990000000000
H            0.36660000000000       -3.68380000000000        5.14400000000000
C            2.17430000000000       -2.87920000000000        4.25830000000000
H            2.93020000000000       -2.12300000000000        4.50440000000000
H            2.70850000000000       -3.83970000000000        4.26570000000000
C            1.59690000000000       -2.58600000000000        2.85930000000000
H            0.92670000000000       -3.40280000000000        2.56420000000000
H            2.39400000000000       -2.57310000000000        2.10300000000000
C            0.81290000000000       -1.25740000000000        2.84810000000000
H            1.49770000000000       -0.42360000000000        3.04160000000000
H            0.38300000000000       -1.06530000000000        1.85630000000000
C           -2.71930000000000        0.09820000000000        5.08020000000000
H           -2.25280000000000        0.03610000000000        6.07060000000000
C           -3.67070000000000        1.30440000000000        5.04900000000000
H           -3.12930000000000        2.23900000000000        5.23980000000000
H           -4.07530000000000        1.40080000000000        4.03620000000000
C           -4.84190000000000        1.13200000000000        6.03440000000000
H           -5.50830000000000        2.00550000000000        6.00620000000000
H           -4.45150000000000        1.09100000000000        7.05870000000000
C           -5.61750000000000       -0.16210000000000        5.72930000000000
H           -6.06860000000000       -0.08640000000000        4.73200000000000
H           -6.45940000000000       -0.28850000000000        6.42440000000000
C           -4.67910000000000       -1.38230000000000        5.77200000000000
H           -4.29890000000000       -1.51260000000000        6.79270000000000
H           -5.23030000000000       -2.30520000000000        5.54370000000000
C           -3.49020000000000       -1.20430000000000        4.80500000000000
H           -3.85680000000000       -1.18770000000000        3.77140000000000
H           -2.81480000000000       -2.06840000000000        4.86120000000000
C           -5.65880000000000        3.97180000000000       -1.71980000000000
H           -4.68680000000000        4.40650000000000       -1.62920000000000
H           -6.08050000000000        4.21570000000000       -2.67060000000000
Ru          -6.48400000000000        2.97110000000000       -0.28570000000000
Cl          -5.48190000000000        0.87860000000000       -0.35570000000000
Cl          -7.46410000000000        4.61880000000000        0.99390000000000
P           -8.41740000000000        2.00460000000000       -1.08320000000000
C           -8.91480000000000        0.78520000000000        0.24960000000000
H          -10.00980000000000        0.74260000000000        0.20380000000000
C           -8.36930000000000       -0.63080000000000       -0.00900000000000
H           -8.70870000000000       -1.00160000000000       -0.98470000000000
H           -7.27670000000000       -0.58410000000000       -0.07260000000000
C           -8.77770000000000       -1.61680000000000        1.10510000000000
H           -9.86670000000000       -1.74840000000000        1.09120000000000
H           -8.35910000000000       -2.61450000000000        0.91240000000000
C           -8.34370000000000       -1.10290000000000        2.49000000000000
H           -7.24800000000000       -1.05930000000000        2.53200000000000
H           -8.64140000000000       -1.80450000000000        3.28190000000000
C           -8.91950000000000        0.30030000000000        2.75240000000000
H           -8.61840000000000        0.67120000000000        3.74210000000000
H          -10.01480000000000        0.24650000000000        2.77750000000000
C           -8.48270000000000        1.27520000000000        1.64360000000000
H           -7.38940000000000        1.35630000000000        1.66310000000000
H           -8.85390000000000        2.28980000000000        1.83600000000000
C           -8.11560000000000        1.05430000000000       -2.65220000000000
H           -7.54990000000000        0.16870000000000       -2.33830000000000
C           -7.26180000000000        1.79020000000000       -3.69390000000000
H           -7.76580000000000        2.71620000000000       -3.98860000000000
H           -6.30460000000000        2.09020000000000       -3.25000000000000
C           -7.02500000000000        0.91190000000000       -4.94040000000000
H           -6.43260000000000        1.45510000000000       -5.69000000000000
H           -6.41620000000000        0.04330000000000       -4.66070000000000
C           -8.35750000000000        0.42780000000000       -5.54510000000000
H           -8.91580000000000        1.29090000000000       -5.92890000000000
H           -8.17910000000000       -0.21670000000000       -6.41730000000000
C           -9.21140000000000       -0.30280000000000       -4.49090000000000
H           -8.69390000000000       -1.21610000000000       -4.17260000000000
H          -10.16550000000000       -0.63880000000000       -4.92030000000000
C           -9.44770000000000        0.60200000000000       -3.26580000000000
H          -10.00860000000000        1.48940000000000       -3.58290000000000
H          -10.07720000000000        0.10920000000000       -2.51210000000000
C           -9.77130000000000        3.25790000000000       -1.31470000000000
H          -10.51660000000000        2.76920000000000       -1.95300000000000
C          -10.44990000000000        3.63230000000000        0.01240000000000
H          -10.83820000000000        2.73690000000000        0.51510000000000
H           -9.69700000000000        4.05040000000000        0.68890000000000
C          -11.57350000000000        4.66610000000000       -0.20070000000000
H          -12.04520000000000        4.93160000000000        0.75580000000000
H          -12.37040000000000        4.21660000000000       -0.80590000000000
C          -11.03630000000000        5.92100000000000       -0.91340000000000
H          -10.30470000000000        6.41960000000000       -0.26530000000000
H          -11.83860000000000        6.65560000000000       -1.07110000000000
C          -10.36280000000000        5.54830000000000       -2.24730000000000
H          -11.11380000000000        5.13100000000000       -2.92950000000000
H           -9.97210000000000        6.44300000000000       -2.75160000000000
C           -9.24320000000000        4.51120000000000       -2.02680000000000
H           -8.44940000000000        4.95580000000000       -1.41470000000000
H           -8.76680000000000        4.24310000000000       -2.97780000000000
116
 energy: -16.752118016876 gnorm: 1.083133026285 xtb: 6.7.1 (edcfbbe)
H           -1.06194992705552        1.22050489989416       -0.44479444805021
C           -0.96813322713294        1.02703159278084        0.57128529302812
H            0.09580043104606        1.15673214345091        0.86830523011625
Ru          -2.33454112799170        0.34853513131196        1.75787605267933
Cl          -2.33977436962254       -1.96451613267443        1.61474556115697
Cl          -3.53626369538231        2.28437636833722        2.08476907063207
P           -1.32363379406970        0.28845078514355        3.86280726260846
C           -0.25612003506378        1.75295377626267        4.26095667046870
H            0.74108878072351        1.49126140016286        3.88530519562634
C           -0.72860450189974        3.01856659330264        3.53121475267352
H           -0.79700828574958        2.83499429151809        2.45117150751584
H           -1.75055008656604        3.25551349679027        3.84736104441201
C            0.19756372209969        4.21473426586030        3.82802893114486
H            1.19360245607953        4.01292487007014        3.41490819451186
H           -0.15724743873019        5.11735629493464        3.31131381228673
C            0.31370390219564        4.46192107626632        5.34442433324513
H           -0.66330165334962        4.77036651417583        5.73700437079680
H            0.99120851512808        5.30229582976188        5.55143624773550
C            0.77994426640234        3.19036059621331        6.07941066216646
H            0.84777964845623        3.36633341991685        7.16207270550571
H            1.79827706625684        2.93776700399816        5.75906025790358
C           -0.15853502559107        2.00539801865787        5.77425985857803
H           -1.15767252898858        2.22777598398046        6.16491232298852
H            0.16228678359468        1.09939062265905        6.30356746511680
C           -0.29302313311896       -1.25941823585209        3.91367347415420
H           -0.98946420761180       -2.07334120633874        3.67689167237558
C            0.30257599232304       -1.52283302313884        5.30439550268271
H            0.99589588230323       -0.71016072561948        5.54946072336289
H           -0.47989147080074       -1.49374517144766        6.07449748579019
C            1.06814623305971       -2.86153486435399        5.33158168951002
H            1.48590451245262       -3.05373140694795        6.32979442512483
H            0.36656464880052       -3.68374297722007        5.14395436045441
C            2.17427129345076       -2.87916691037411        4.25831927913978
H            2.93016785126326       -2.12297801675785        4.50438738379991
H            2.70844548554886       -3.83972035279037        4.26570868103797
C            1.59676439237177       -2.58595250690568        2.85941695980842
H            0.92667629146234       -3.40280148725707        2.56423093367873
H            2.39392958479647       -2.57307204176557        2.10306589303678
C            0.81246977018965       -1.25720688092001        2.84813839867341
H            1.49761547025072       -0.42360261822216        3.04149250706342
H            0.38315930524616       -1.06531427221909        1.85613137332339
C           -2.71920298087258        0.09891946286650        5.07840229722285
H           -2.25185509276637        0.03638099603546        6.06927825585050
C           -3.67097766855212        1.30440148042374        5.04904773265011
H           -3.12939317321187        2.23898518632177        5.23981117025549
H           -4.07543641100445        1.40091845642854        4.03624416002732
C           -4.84192874571187        1.13197806645876        6.03448372472021
H           -5.50831130299064        2.00548419425780        6.00627849222835
H           -4.45148505018043        1.09097715042580        7.05872288362201
C           -5.61750266174291       -0.16210794017855        5.72932791853883
H           -6.06858214388642       -0.08639668981327        4.73200546756978
H           -6.45942594827761       -0.28851357114110        6.42440070954717
C           -4.67902693982406       -1.38228112176632        5.77203722286436
H           -4.29887136124273       -1.51258813974594        6.79271759229414
H           -5.23028171460209       -2.30518425759084        5.54371374809464
C           -3.49020906000200       -1.20408934329476        4.80480886138714
H           -3.85691822304584       -1.18777926649985        3.77133769800928
H           -2.81479793457917       -2.06827454623856        4.86115533939453
C           -5.58233905011036        3.92382148759047       -1.68546316985430
H           -4.65719016505649        4.39662278279108       -1.62690336029381
H           -6.06133700556761        4.19815154783944       -2.65096260891544
Ru          -6.44111305667497        2.94198795966784       -0.26307003752574
Cl          -5.47286171857979        0.86205590248214       -0.34127590137200
Cl          -7.44908073451860        4.60889690364394        1.00484094323792
P           -8.40244997657285        2.00313434937754       -1.08125067097265
C           -8.91342453730190        0.78533529989379        0.24949844363148
H          -10.00911542167572        0.74342005610949        0.20294563710458
C           -8.36921378673084       -0.63092587754955       -0.00889798545193
H           -8.70866700752228       -1.00155975722179       -0.98466477229335
H           -7.27664047047880       -0.58423602460705       -0.07256174673224
C           -8.77775423193278       -1.61682729475795        1.10510872258564
H           -9.86672370386232       -1.74838923373429        1.09119959609485
H           -8.35913620879229       -2.61453799632701        0.91240917070355
C           -8.34373837157252       -1.10291436327944        2.49002411559576
H           -7.24800520676163       -1.05929394346439        2.53199169089881
H           -8.64138325643300       -1.80452462329066        3.28191665969323
C           -8.91954621938781        0.30025929996036        2.75241819220427
H           -8.61844299728604        0.67118473191981        3.74212512142893
H          -10.01481619336064        0.24649093403022        2.77748482579774
C           -8.48257617859354        1.27506440812747        1.64374227445743
H           -7.38935450760770        1.35628807482695        1.66323576611558
H           -8.85385768694047        2.28972635608082        1.83598974363986
C           -8.11438761281789        1.05410770295761       -2.65189131135732
H           -7.54949327655750        0.16820019583259       -2.33886457365413
C           -7.26158515623417        1.79006465423243       -3.69403827345445
H           -7.76575462634609        2.71610530613206       -3.98853769894799
H           -6.30447338792229        2.09019874939828       -3.25010619641759
C           -7.02500124866644        0.91188745799006       -4.94048871236205
H           -6.43260845420836        1.45508844040023       -5.69002746514935
H           -6.41620200120601        0.04329049133381       -4.66073753219991
C           -8.35752200858098        0.42781720246569       -5.54510562798506
H           -8.91580160747568        1.29090715570524       -5.92890112800842
H           -8.17911617242995       -0.21672663719263       -6.41729583753227
C           -9.21141529318971       -0.30270309081674       -4.49078129972281
H           -8.69391242761979       -1.21606706985069       -4.17258954384886
H          -10.16550360115746       -0.63872818719551       -4.92025509985665
C           -9.44758200963691        0.60225232009603       -3.26537759414900
H          -10.00851928371210        1.48950213984973       -3.58278853026859
H          -10.07718562327863        0.10925540172046       -2.51197323696511
C           -9.76717697721831        3.25559515361455       -1.31385364843283
H          -10.51490046402307        2.76846337014004       -1.95244443907620
C          -10.44925364207733        3.63193294484429        0.01215646794417
H          -10.83805120890154        2.73691436533758        0.51516820427848
H           -9.69701679096196        4.05040938588040        0.68903632674514
C          -11.57331675952184        4.66596924946240       -0.20083278571833
H          -12.04509911329682        4.93152571024960        0.75572695311391
H          -12.37033720338974        4.21656496722485       -0.80595724118116
C          -11.03629720907787        5.92098986585140       -0.91339243886889
H          -10.30466398684273        6.41956925870082       -0.26529871220810
H          -11.83858809134896        6.65557057594187       -1.07108958350649
C          -10.36281851329590        5.54810488312764       -2.24720451745416
H          -11.11379582269008        5.13095365209977       -2.92946390042249
H           -9.97208272820779        6.44292067656443       -2.75155214737191
C           -9.24300819689195        4.51086419230845       -2.02658889599447
H           -8.44930216278522        4.95593404174375       -1.41478745347234
H           -8.76668100971114        4.24319823170428       -2.97775954847582
116
 energy: -16.812929994280 gnorm: 0.149253823023 xtb: 6.7.1 (edcfbbe)
H           -1.08267936884263        1.24763527236699       -0.45658441849727
C           -0.95775584800345        1.00707540836864        0.56743677950884
H            0.07600253396993        1.16888519679429        0.86764988358859
Ru          -2.32625117151328        0.33605588567128        1.76783614346912
Cl          -2.35634360844629       -1.95368395966360        1.60210165755740
Cl          -3.55922522121404        2.29008325876816        2.08997820184361
P           -1.33309391102625        0.29377162568339        3.84853149642282
C           -0.25803991725935        1.75305453170614        4.25932435342388
H            0.73931024139357        1.49078029032212        3.88421281372843
C           -0.72877248956639        3.01935054680549        3.53075048663572
H           -0.79720100184696        2.83582646484168        2.45076772145219
H           -1.75067664065690        3.25620723221493        3.84704067253374
C            0.19769245578823        4.21501924051328        3.82802756364903
H            1.19367239421028        4.01300902220627        3.41492359714914
H           -0.15698459886140        5.11768619260446        3.31138419429824
C            0.31368750488610        4.46187988298928        5.34444519064038
H           -0.66332232507079        4.77028594437912        5.73701030113293
H            0.99125285103494        5.30217854986921        5.55162675240708
C            0.77962407795777        3.18992170598278        6.07901366364234
H            0.84754230479780        3.36587166378584        7.16177542147934
H            1.79806077422154        2.93750923439582        5.75880946921668
C           -0.15930433568750        2.00494917671522        5.77328049634954
H           -1.15800652175647        2.22760383356392        6.16475354643316
H            0.16176766880075        1.09904303611588        6.30271394724844
C           -0.29600550379232       -1.25559780450862        3.91181610856186
H           -0.99043275886025       -2.07144876468698        3.67585462415870
C            0.30101005041684       -1.52116224065154        5.30298451836076
H            0.99510072783841       -0.70943052718057        5.54887421075934
H           -0.48052553703467       -1.49288141436269        6.07398026757864
C            1.06720343088642       -2.86044638422698        5.33090245602488
H            1.48517983960496       -3.05271035842610        6.32922488176977
H            0.36617463317860       -3.68321458292955        5.14364454389526
C            2.17384409189826       -2.87878669144865        4.25826316273654
H            2.92993680943966       -2.12279586099489        4.50432410275555
H            2.70790964619875       -3.83954487987700        4.26575715419931
C            1.59606133560767       -2.58548306515838        2.85956764078062
H            0.92637489985784       -3.40263897204120        2.56435461254389
H            2.39345810337886       -2.57282228627642        2.10332406300608
C            0.81136055740129       -1.25637172544425        2.84772016080681
H            1.49711936048424       -0.42332199603000        3.04111025207566
H            0.38320365284548       -1.06480868446193        1.85528485420617
C           -2.71975189392659        0.09981306718917        5.07605879499561
H           -2.25003922315191        0.03718710187307        6.06594283026037
C           -3.67159763711729        1.30472607504159        5.04887847169075
H           -3.12973935337915        2.23912415259982        5.23979070842754
H           -4.07623164940193        1.40155772677735        4.03628647874752
C           -4.84205484803626        1.13195355630444        6.03466867265028
H           -5.50845051299334        2.00543304126905        6.00661304547162
H           -4.45139736169939        1.09088746524048        7.05880278627362
C           -5.61754176935040       -0.16211696534259        5.72939436589283
H           -6.06856044201832       -0.08637163543587        4.73203960687502
H           -6.45949157875999       -0.28859199490905        6.42442148346541
C           -4.67889358532809       -1.38215674985208        5.77200778224342
H           -4.29867642515679       -1.51247499438669        6.79267011362367
H           -5.23017079830393       -2.30509903729306        5.54376305254336
C           -3.49038411793938       -1.20375361185322        4.80426966501494
H           -3.85738997117561       -1.18811678318296        3.77099834439130
H           -2.81474396627226       -2.06777085997005        4.86092785848258
C           -5.59257658295769        3.94513494410944       -1.68220818249811
H           -4.62583408920010        4.37625266951910       -1.62489634559297
H           -6.04824772611475        4.17976498797688       -2.64272992205648
Ru          -6.45530671992273        2.94825945937843       -0.26351056666489
Cl          -5.46778332598921        0.84500393491434       -0.32684892240349
Cl          -7.42840501957052        4.60049048661510        1.01296918273104
P           -8.38766719808276        2.00336522698210       -1.07617890865309
C           -8.91141412505084        0.78517222781683        0.24984619872161
H          -10.00718888396969        0.74508481393667        0.20124124009677
C           -8.36878092819132       -0.63129713963722       -0.00869800137463
H           -8.70851755812005       -1.00148898000591       -0.98455230279870
H           -7.27626388648246       -0.58494045556211       -0.07244282664235
C           -8.77781443601717       -1.61696916894628        1.10519828373035
H           -9.86679520025463       -1.74834003624148        1.09117781111978
H           -8.35928318049147       -2.61471558460022        0.91250874138963
C           -8.34379498680400       -1.10302266850215        2.49011893456644
H           -7.24804269563005       -1.05931386273818        2.53200473191465
H           -8.64134875225307       -1.80464841742095        3.28200034805643
C           -8.91962517693776        0.30010087337379        2.75257856214686
H           -8.61862370389883        0.67105056412192        3.74229884720638
H          -10.01488881930146        0.24644745984911        2.77742346154188
C           -8.48218010031663        1.27483403628108        1.64422682584927
H           -7.38908551368544        1.35615384798210        1.66410589691397
H           -8.85368907494335        2.28951436087205        1.83603971915860
C           -8.11259379461645        1.05380634734770       -2.65100294762523
H           -7.54820120577334        0.16702917898366       -2.33985562971914
C           -7.26102118959441        1.78992283058188       -3.69396216976424
H           -7.76559132701288        2.71585760912817       -3.98822780620114
H           -6.30388591195260        2.09032032589640       -3.25044427472215
C           -7.02492444283591        0.91185930203632       -4.94057675303038
H           -6.43261010458004        1.45505555057235       -5.69014716792646
H           -6.41615659747149        0.04322352038017       -4.66090844489648
C           -8.35754989241673        0.42788749276478       -5.54500284087289
H           -8.91579229075086        1.29096219141504       -5.92886285325518
H           -8.17924001583494       -0.21678406361279       -6.41716902284519
C           -9.21133608381384       -0.30234945578511       -4.49033497482633
H           -8.69393540594640       -1.21590129871079       -4.17247645897486
H          -10.16549498954938       -0.63831022344758       -4.91985130026670
C           -9.44686319746649        0.60270119803160       -3.26446480001309
H          -10.00785899317825        1.48987273384041       -3.58212154051101
H          -10.07682364905332        0.10957232670978       -2.51145028563875
C           -9.76182278330666        3.25327648185145       -1.31228050593481
H          -10.50991193560127        2.76624272140515       -1.95086519740294
C          -10.44766062126941        3.63121125973921        0.01205257580051
H          -10.83720717841212        2.73672571210104        0.51531516887364
H           -9.69666792131857        4.05036848524516        0.68967710145094
C          -11.57246918291350        4.66532616676186       -0.20118996711197
H          -12.04450835736512        4.93102329983624        0.75534721392642
H          -12.36975068341184        4.21616473156876       -0.80621199471269
C          -11.03603297863260        5.92068484982642       -0.91337306822643
H          -10.30450511472098        6.41941898243827       -0.26528235409859
H          -11.83846683005395        6.65519736240538       -1.07112589447447
C          -10.36244412771274        5.54729473657206       -2.24687773375591
H          -11.11353545451193        5.13042264509984       -2.92921006937928
H           -9.97196376426435        6.44233319403616       -2.75131347305447
C           -9.24182345308358        4.51012615034012       -2.02604349824042
H           -8.44839176208214        4.95627867244103       -1.41491442980814
H           -8.76591512830604        4.24322284886183       -2.97754901967415
116
 energy: -16.813685024982 gnorm: 0.179329763924 xtb: 6.7.1 (edcfbbe)
H           -1.08231842347313        1.24210858549769       -0.46089304690623
C           -0.95486449659263        1.00238122021094        0.57158722694252
H            0.06456330696166        1.16911068898207        0.86817717188648
Ru          -2.33238295014208        0.33606091366532        1.76136233635073
Cl          -2.35682009709891       -1.95984324871750        1.59784365929717
Cl          -3.56533571817163        2.27940156003576        2.08764320401868
P           -1.33385199328979        0.29363499771147        3.85024261650454
C           -0.26066275671290        1.75404543999713        4.25645083589546
H            0.73598969837628        1.49112210871152        3.88067427255738
C           -0.73072266289282        3.02142328865009        3.52884657695725
H           -0.79932835817666        2.83912257997092        2.44858896918064
H           -1.75241158861248        3.25900266649253        3.84552550642754
C            0.19731538707120        4.21592533275939        3.82733250539468
H            1.19312842752656        4.01300315289438        3.41421281051777
H           -0.15602654017094        5.11955055161577        3.31143126465355
C            0.31343385601811        4.46142844450495        5.34403211936700
H           -0.66345043483782        4.76989969886110        5.73679451994626
H            0.99140112386417        5.30121526404526        5.55223882979166
C            0.77838379894863        3.18839513988071        6.07730628217622
H            0.84645606357839        3.36325410687366        7.16022069053886
H            1.79663875393004        2.93547813376341        5.75697268022764
C           -0.16125914755929        2.00445675935425        5.77043192996793
H           -1.15971297325855        2.22696121518934        6.16249727085133
H            0.15948539796920        1.09787382257403        6.29866792069016
C           -0.29840037948097       -1.25403941070003        3.90820354200313
H           -0.99328350675026       -2.06901412911723        3.67165848286289
C            0.29713968351511       -1.51810523291220        5.29966905698369
H            0.99129007279484       -0.70651457266013        5.54519090546410
H           -0.48470981325838       -1.48889895356974        6.07010898936146
C            1.06305219721012       -2.85694899026655        5.32882532715087
H            1.48060027526710       -3.04802495289609        6.32741071854617
H            0.36267183332248       -3.68026836763060        5.14183172300956