      -----------------------------------------------------------      
     |                   =====================                   |     
     |                           x T B                           |     
     |                   =====================                   |     
     |                         S. Grimme                         |     
     |          Mulliken Center for Theoretical Chemistry        |     
     |                    University of Bonn                     |     
      -----------------------------------------------------------      

   * xtb version 6.7.1 (edcfbbe) compiled by 'albert@albert-system' on 2024-07-22

   xtb is free software: you can redistribute it and/or modify it under
   the terms of the GNU Lesser General Public License as published by
   the Free Software Foundation, either version 3 of the License, or
   (at your option) any later version.
   
   xtb is distributed in the hope that it will be useful,
   but WITHOUT ANY WARRANTY; without even the implied warranty of
   MERCHANTABILITY or FITNESS FOR A PARTICULAR PURPOSE.  See the
   GNU Lesser General Public License for more details.
   
   Cite this work as:
   * C. Bannwarth, E. Caldeweyher, S. Ehlert, A. Hansen, P. Pracht,
     J. Seibert, S. Spicher, S. Grimme, WIREs Comput. Mol. Sci., 2020, 11,
     e01493. DOI: 10.1002/wcms.1493
   
   for GFN2-xTB:
   * C. Bannwarth, S. Ehlert and S. Grimme., J. Chem. Theory Comput., 2019,
     15, 1652-1671. DOI: 10.1021/acs.jctc.8b01176
   for GFN1-xTB:
   * S. Grimme, C. Bannwarth, P. Shushkov, J. Chem. Theory Comput., 2017,
     13, 1989-2009. DOI: 10.1021/acs.jctc.7b00118
   for GFN0-xTB:
   * P. Pracht, E. Caldeweyher, S. Ehlert, S. Grimme, ChemRxiv, 2019, preprint.
     DOI: 10.26434/chemrxiv.8326202.v1
   for GFN-FF:
   * S. Spicher and S. Grimme, Angew. Chem. Int. Ed., 2020, 59, 15665-15673.
     DOI: 10.1002/anie.202004239
   
   for ALPB and GBSA implicit solvation:
   * S. Ehlert, M. Stahn, S. Spicher, S. Grimme, J. Chem. Theory Comput.,
     2021, 17, 4250-4261. DOI: 10.1021/acs.jctc.1c00471
   
   for ddCOSMO and CPCM-X implicit solvation:
   * M. Stahn, S. Ehlert, S. Grimme, J. Phys. Chem. A,
     2023, XX, XXXX-XXXX. DOI: 10.1021/acs.jpca.3c04382
   
   for DFT-D4:
   * E. Caldeweyher, C. Bannwarth and S. Grimme, J. Chem. Phys., 2017,
     147, 034112. DOI: 10.1063/1.4993215
   * E. Caldeweyher, S. Ehlert, A. Hansen, H. Neugebauer, S. Spicher,
     C. Bannwarth and S. Grimme, J. Chem. Phys., 2019, 150, 154122.
     DOI: 10.1063/1.5090222
   * E. Caldeweyher, J.-M. Mewes, S. Ehlert and S. Grimme, Phys. Chem. Chem. Phys.
     2020, 22, 8499-8512. DOI: 10.1039/D0CP00502A
   
   for sTDA-xTB:
   * S. Grimme and C. Bannwarth, J. Chem. Phys., 2016, 145, 054103.
     DOI: 10.1063/1.4959605
   
   in the mass-spec context:
   * V. Asgeirsson, C. Bauer and S. Grimme, Chem. Sci., 2017, 8, 4879.
     DOI: 10.1039/c7sc00601b
   * J. Koopman and S. Grimme, ACS Omega 2019, 4, 12, 15120-15133.
     DOI: 10.1021/acsomega.9b02011
   
   for metadynamics refer to:
   * S. Grimme, J. Chem. Theory Comput., 2019, 155, 2847-2862
     DOI: 10.1021/acs.jctc.9b00143
   
   for SPH calculations refer to:
   * S. Spicher and S. Grimme, J. Chem. Theory Comput., 2021, 17, 1701-1714
     DOI: 10.1021/acs.jctc.0c01306
   
   for ONIOM refer to:
   * C. Plett, A. Katbashev, S. Ehlert, S. Grimme, M. Bursch,
     Phys. Chem. Chem. Phys., 2023, 25, 17860-17868. DOI: 10.1039/D3CP02178E
   
   for DIPRO refer to:
   * J. Kohn, N. Gildemeister, S. Grimme, D. Fazzi, A. Hansen,
     J. Chem. Phys., 2023, just accepted.
   
   for PTB refer to:
   * S. Grimme, M. Mueller, A. Hansen, J. Chem. Phys., 2023, 158, 124111.
     DOI: 10.1063/5.0137838
   
   with help from (in alphabetical order)
   P. Atkinson, C. Bannwarth, F. Bohle, G. Brandenburg, E. Caldeweyher
   M. Checinski, S. Dohm, S. Ehlert, S. Ehrlich, I. Gerasimov, C. Hölzer
   A. Katbashev, J. Kohn, J. Koopman, C. Lavigne, S. Lehtola, F. März, M. Müller,
   F. Musil, H. Neugebauer, J. Pisarek, C. Plett, P. Pracht, F. Pultar,
   J. Seibert, P. Shushkov, S. Spicher, M. Stahn, M. Steiner, T. Strunk,
   J. Stückrath, T. Rose, and J. Unsleber
   
 * started run on 2026/02/05 at 16:53:47.090     
   ID    Z sym.   atoms
    1    1 H      1, 3, 9, 11, 12, 14, 15, 17, 18, 20, 21, 23, 24, 26, 28,
                  29, 31, 32, 34, 35, 37, 38, 40, 41, 43, 45, 46, 48, 49, 51,
                  52, 54, 55, 57, 58, 60, 61, 67, 69, 70, 72, 73, 75, 76, 78,
                  79, 81, 82, 84, 86, 87, 89, 90, 92, 93, 95, 96, 98, 99,
                  101, 103, 104, 106, 107, 109, 110, 112, 113, 115, 116
    2    6 C      2, 8, 10, 13, 16, 19, 22, 25, 27, 30, 33, 36, 39, 42, 44,
                  47, 50, 53, 56, 59, 66, 68, 71, 74, 77, 80, 83, 85, 88, 91,
                  94, 97, 100, 102, 105, 108, 111, 114
    3   44 Ru     4, 62
    4   17 Cl     5, 6, 63, 64
    5   15 P      7, 65
constraining bond 4 2 to    1.9077063 Å, actual value:    1.9077065 Å
constraining bond 2 59 to    7.4639804 Å, actual value:    7.6216690 Å
constraining bond 4 5 to    2.2911897 Å, actual value:    2.2911899 Å
constraining bond 4 6 to    2.3282448 Å, actual value:    2.3282450 Å
constraining bond 4 7 to    2.3221948 Å, actual value:    2.3221950 Å
constraining bond 4 62 to    6.1790909 Å, actual value:    6.2632598 Å
constraining bond 62 59 to    1.9062825 Å, actual value:    1.9062827 Å
constraining bond 62 63 to    2.3185218 Å, actual value:    2.3185220 Å
constraining bond 62 64 to    2.3006895 Å, actual value:    2.3006897 Å
constraining bond 62 65 to    2.3114055 Å, actual value:    2.3114057 Å
constraining angle 2 4 5 to  106.8545075°, actual value:  106.8545075°
constraining angle 2 4 6 to  100.3118076°, actual value:  100.3118076°
constraining angle 2 4 7 to  101.4345650°, actual value:  101.4345650°
constraining angle 2 4 62 to  109.5952970°, actual value:  109.5952970°
constraining angle 5 4 6 to  149.3932537°, actual value:  149.3932537°
constraining angle 5 4 7 to   91.0429874°, actual value:   91.0429874°
constraining angle 5 4 62 to  114.7841756°, actual value:  114.7841756°
constraining angle 6 4 7 to   97.2285715°, actual value:   97.2285715°
constraining angle 6 4 62 to   40.3857063°, actual value:   40.3857063°
constraining angle 7 4 62 to  130.1859889°, actual value:  130.1859889°
constraining angle 4 62 59 to  112.1414265°, actual value:  112.1414265°
constraining angle 4 62 63 to   40.4926582°, actual value:   40.4926582°
constraining angle 4 62 64 to  116.0676551°, actual value:  116.0676551°
constraining angle 4 62 65 to  122.7720754°, actual value:  122.7720754°
constraining angle 59 62 63 to  105.9711306°, actual value:  105.9711306°
constraining angle 59 62 64 to  101.0880614°, actual value:  101.0880614°
constraining angle 59 62 65 to  104.9920198°, actual value:  104.9920198°
constraining angle 63 62 64 to  149.9324650°, actual value:  149.9324650°
constraining angle 63 62 65 to   88.7808625°, actual value:   88.7808625°
constraining angle 64 62 65 to   96.7514553°, actual value:   96.7514553°
constraining angle 5 4 2 1 to   90.0806114°, actual value:   90.0806114°
constraining angle 6 4 2 1 to  -75.6616971°, actual value:  -75.6616971°
constraining angle 7 4 2 1 to -175.2916431°, actual value: -175.2916431°
constraining angle 5 4 2 3 to  -88.2763724°, actual value:  -88.2763724°
constraining angle 6 4 2 3 to  105.9813191°, actual value:  105.9813191°
constraining angle 7 4 2 3 to    6.3513731°, actual value:    6.3513731°
constraining angle 63 62 59 60 to  -79.6696401°, actual value:  -79.6696401°
constraining angle 64 62 59 60 to   87.0840312°, actual value:   87.0840312°
constraining angle 65 62 59 60 to -172.7498529°, actual value: -172.7498529°
constraining angle 63 62 59 61 to  103.0774381°, actual value:  103.0774381°
constraining angle 64 62 59 61 to  -90.1688907°, actual value:  -90.1688907°
constraining angle 65 62 59 61 to    9.9972252°, actual value:    9.9972252°

           -------------------------------------------------
          |                Calculation Setup                |
           -------------------------------------------------

          program call               : xtb step_geom.sdf --input step_1.xcontrol --gfnff --opt
          hostname                   : c1-10
          coordinate file            : step_geom.sdf
          omp threads                :                    20


molecular fragmentation (1/2 indicates fragments):
111111111111111111111111111111111111111111111111111111111122222222222222
22222222222222222222222222222222222222222222
# atoms in fragment 1/2:    58    58
 fragment masses (1/2) :      466.43      466.43
CMA distance (Bohr)    :  16.333
constraining FC (au)   :  1.5000
########################################################################
[WARNING] Please study the warnings concerning your input carefully
-1- set_rdsetbl: Set-blocks will become obsolete in xtb 6.0 and newer
########################################################################
 
          ==================== Thresholds ====================
          CN  :   150.00000
          rep :   500.00000
          disp:  2500.00000
          HB1 :   250.00000
          HB2 :   450.00000
 
          Pauling EN used:
          Z : 1  EN :  2.20
          Z : 6  EN :  2.55
          Z :15  EN :  2.19
          Z :17  EN :  3.16
          Z :44  EN :  2.20
          electric field strengths (au): 0.000
 
           ------------------------------------------------- 
          |           Force Field Initialization            |
           ------------------------------------------------- 
 
          distances ...
          ----------------------------------------
          generating topology and atomic info file ...
          pair mat ...
          computing topology distances matrix with Floyd-Warshall algo ...
          making topology EEQ charges ...
          #fragments for EEQ constrain: 1
          ----------------------------------------
          generating topology and atomic info file ...
          pair mat ...
          computing topology distances matrix with Floyd-Warshall algo ...
          making topology EEQ charges ...
          #fragments for EEQ constrain: 1
          rings ...
          # BATM   1958
          # H in HB   0
 
  atom   neighbors  erfCN metchar sp-hybrid imet pi  qest     coordinates
    1  H       1    0.98   0.00         0    0    0   0.031   -0.352056    1.741005   -0.265318
    2  C       4    2.78   0.00         3    0    0  -0.075   -0.393441    1.414649    1.726832
    3  H       1    0.98   0.00         0    0    0   0.031    1.459624    1.617984    2.503887
    4  Ru      5    3.46   0.00         0    2    0   0.339   -3.382421    0.520620    3.533221
    5  Cl      1    0.98   0.00         0    0    0  -0.255   -3.607109   -3.803263    3.526796
    6  Cl      1    0.96   0.00         0    0    0  -0.255   -5.419546    4.418180    3.663234
    7  P       4    3.73   0.02         3    0    0  -0.003   -1.928843    0.518919    7.673800
    8  C       4    3.49   0.00         3    0    0  -0.029    0.196909    3.192125    8.475989
    9  H       1    0.98   0.01         0    0    0   0.025    2.097218    2.532989    7.974455
   10  C       4    3.52   0.00         3    0    0  -0.039   -0.379457    5.572991    6.916965
   11  H       1    0.97   0.00         0    0    0   0.026   -0.348277    5.140055    4.888910
   12  H       1    0.97   0.00         0    0    0   0.026   -2.315859    6.191310    7.308705
   13  C       4    3.48   0.00         3    0    0  -0.041    1.481923    7.724445    7.547944
   14  H       1    0.97   0.00         0    0    0   0.027    3.393192    7.168109    6.968554
   15  H       1    0.97   0.01         0    0    0   0.027    1.040105    9.424820    6.440754
   16  C       4    3.48   0.00         3    0    0  -0.037    1.471152    8.315362   10.399163
   17  H       1    0.97   0.00         0    0    0   0.026   -0.384181    9.069930   10.934900
   18  H       1    0.97   0.01         0    0    0   0.026    2.830999    9.821096   10.844571
   19  C       4    3.48   0.00         3    0    0  -0.041    2.027676    5.925236   11.966124
   20  H       1    0.97   0.01         0    0    0   0.027    1.991771    6.346834   13.999280
   21  H       1    0.97   0.00         0    0    0   0.027    3.955953    5.276304   11.568525
   22  C       4    3.52   0.00         3    0    0  -0.039    0.144753    3.799483   11.315302
   23  H       1    0.97   0.00         0    0    0   0.026   -1.765571    4.398527   11.842725
   24  H       1    0.97   0.00         0    0    0   0.026    0.511738    2.100809   12.445547
   25  C       4    3.49   0.00         3    0    0  -0.029   -0.240751   -2.517493    8.131680
   26  H       1    0.98   0.01         0    0    0   0.025   -1.627810   -3.977685    7.642241
   27  C       4    3.52   0.00         3    0    0  -0.039    0.570886   -2.913769   10.885767
   28  H       1    0.97   0.00         0    0    0   0.026    1.957378   -1.458491   11.384844
   29  H       1    0.97   0.01         0    0    0   0.026   -1.033491   -2.639569   12.173427
   30  C       4    3.48   0.00         3    0    0  -0.041    1.783524   -5.538598   11.239146
   31  H       1    0.97   0.01         0    0    0   0.027    2.345150   -5.834151   13.216556
   32  H       1    0.97   0.00         0    0    0   0.027    0.372654   -7.003703   10.837957
   33  C       4    3.48   0.00         3    0    0  -0.037    4.056486   -5.870812    9.448442
   34  H       1    0.97   0.00         0    0    0   0.026    5.546346   -4.529485    9.976620
   35  H       1    0.97   0.01         0    0    0   0.026    4.901950   -7.754302    9.676154
   36  C       4    3.48   0.00         3    0    0  -0.041    3.287368   -5.413120    6.676024
   37  H       1    0.97   0.00         0    0    0   0.027    1.960402   -6.889564    6.078682
   38  H       1    0.97   0.01         0    0    0   0.027    4.927272   -5.599825    5.415955
   39  C       4    3.52   0.00         3    0    0  -0.039    2.028432   -2.803598    6.348724
   40  H       1    0.97   0.00         0    0    0   0.026    3.404909   -1.308824    6.751425
   41  H       1    0.97   0.00         0    0    0   0.026    1.438271   -2.511257    4.381519
   42  C       4    3.49   0.00         3    0    0  -0.029   -4.818802    0.505502    9.672185
   43  H       1    0.97   0.01         0    0    0   0.025   -4.145303    0.417818   11.629941
   44  C       4    3.52   0.00         3    0    0  -0.039   -6.403904    2.913958    9.325420
   45  H       1    0.97   0.00         0    0    0   0.026   -5.279895    4.609042    9.723586
   46  H       1    0.97   0.00         0    0    0   0.026   -6.945499    3.062112    7.334216
   47  C       4    3.48   0.00         3    0    0  -0.041   -8.818596    2.858589   10.950396
   48  H       1    0.97   0.01         0    0    0   0.027   -9.923141    4.598460   10.693015
   49  H       1    0.97   0.00         0    0    0   0.027   -8.294953    2.821550   12.955773
   50  C       4    3.48   0.00         3    0    0  -0.037  -10.415981    0.510037   10.323952
   51  H       1    0.97   0.00         0    0    0   0.026  -11.048662    0.621342    8.352589
   52  H       1    0.97   0.01         0    0    0   0.026  -12.151695    0.466195   11.463835
   53  C       4    3.48   0.00         3    0    0  -0.041   -8.860170   -1.920340   10.698684
   54  H       1    0.97   0.00         0    0    0   0.027   -8.369219   -2.118761   12.702739
   55  H       1    0.97   0.01         0    0    0   0.027   -9.994006   -3.597472   10.235513
   56  C       4    3.53   0.00         3    0    0  -0.039   -6.415620   -1.858357    9.110748
   57  H       1    0.97   0.00         0    0    0   0.026   -6.897878   -1.878010    7.095166
   58  H       1    0.97   0.01         0    0    0   0.026   -5.298225   -3.578007    9.426899
   59  C       4    2.78   0.00         3    0    0  -0.075  -11.793781    7.982014   -4.133587
   60  H       1    0.98   0.00         0    0    0   0.031  -10.063170    9.020041   -4.202940
   61  H       1    0.98   0.00         0    0    0   0.031  -12.865822    8.321220   -5.810341
   62  Ru      5    3.46   0.00         0    2    0   0.339  -12.713888    5.980983   -1.282935
   63  Cl      1    0.99   0.00         0    0    0  -0.255  -10.481555    2.231011   -1.671274
   64  Cl      1    0.96   0.00         0    0    0  -0.255  -14.693188    8.940483    1.212259
   65  P       4    3.72   0.02         3    0    0  -0.003  -16.323076    3.851451   -2.514848
   66  C       4    3.49   0.00         3    0    0  -0.029  -16.868829    1.509324    0.086549
   67  H       1    0.97   0.01         0    0    0   0.025  -18.919938    1.212637    0.121509
   68  C       4    3.51   0.00         3    0    0  -0.039  -15.593453   -1.055412   -0.424244
   69  H       1    0.97   0.00         0    0    0   0.026  -16.249755   -1.850798   -2.223452
   70  H       1    0.97   0.00         0    0    0   0.026  -13.557651   -0.757213   -0.652522
   71  C       4    3.48   0.00         3    0    0  -0.041  -16.060971   -2.951941    1.740249
   72  H       1    0.97   0.00         0    0    0   0.027  -18.081089   -3.409633    1.824909
   73  H       1    0.97   0.01         0    0    0   0.027  -15.100235   -4.752850    1.356634
   74  C       4    3.48   0.00         3    0    0  -0.037  -15.212484   -1.858924    4.299883
   75  H       1    0.97   0.00         0    0    0   0.026  -13.159297   -1.569418    4.271915
   76  H       1    0.97   0.01         0    0    0   0.026  -15.563217   -3.208566    5.839065
   77  C       4    3.48   0.00         3    0    0  -0.041  -16.535859    0.678790    4.818802
   78  H       1    0.97   0.01         0    0    0   0.027  -15.947966    1.465861    6.648434
   79  H       1    0.97   0.00         0    0    0   0.027  -18.579787    0.370575    4.974704
   80  C       4    3.52   0.00         3    0    0  -0.039  -16.008626    2.557933    2.660356
   81  H       1    0.97   0.00         0    0    0   0.026  -13.969044    2.913202    2.581555
   82  H       1    0.97   0.00         0    0    0   0.026  -16.873931    4.403251    3.040191
   83  C       4    3.49   0.00         3    0    0  -0.029  -15.835905    2.050731   -5.491733
   84  H       1    0.98   0.01         0    0    0   0.025  -14.540309    0.518541   -4.971869
   85  C       4    3.51   0.00         3    0    0  -0.039  -14.574513    3.544937   -7.634116
   86  H       1    0.97   0.00         0    0    0   0.026  -15.763150    5.162165   -8.134704
   87  H       1    0.97   0.00         0    0    0   0.026  -12.768879    4.329929   -6.985562
   88  C       4    3.48   0.00         3    0    0  -0.041  -14.167277    1.869128   -9.986069
   89  H       1    0.97   0.01         0    0    0   0.027  -13.301782    2.964035  -11.523928
   90  H       1    0.97   0.00         0    0    0   0.027  -12.800816    0.377189   -9.534235
   91  C       4    3.48   0.00         3    0    0  -0.037  -16.664550    0.654979  -10.865169
   92  H       1    0.97   0.00         0    0    0   0.026  -17.953532    2.139926  -11.522794
   93  H       1    0.97   0.01         0    0    0   0.026  -16.349155   -0.572398  -12.510743
   94  C       4    3.48   0.00         3    0    0  -0.041  -17.928210   -0.825621   -8.699543
   95  H       1    0.97   0.00         0    0    0   0.027  -16.717651   -2.418471   -8.157003
   96  H       1    0.97   0.01         0    0    0   0.027  -19.718914   -1.673164   -9.322208
   97  C       4    3.53   0.00         3    0    0  -0.039  -18.342249    0.899321   -6.389920
   98  H       1    0.97   0.00         0    0    0   0.026  -19.626696    2.435857   -6.922823
   99  H       1    0.97   0.01         0    0    0   0.026  -19.290702   -0.106014   -4.840722
  100  C       4    3.49   0.00         3    0    0  -0.029  -19.115714    5.970212   -2.780354
  101  H       1    0.97   0.01         0    0    0   0.025  -20.513166    4.907997   -3.880553
  102  C       4    3.52   0.00         3    0    0  -0.039  -20.284698    6.585318   -0.194264
  103  H       1    0.97   0.00         0    0    0   0.026  -20.778673    4.844502    0.820141
  104  H       1    0.97   0.00         0    0    0   0.026  -18.862301    7.533771    0.972075
  105  C       4    3.48   0.00         3    0    0  -0.041  -22.614353    8.314039   -0.463172
  106  H       1    0.97   0.01         0    0    0   0.027  -23.426557    8.750188    1.397830
  107  H       1    0.97   0.00         0    0    0   0.027  -24.102134    7.304169   -1.494773
  108  C       4    3.48   0.00         3    0    0  -0.037  -21.933484   10.754998   -1.893695
  109  H       1    0.97   0.00         0    0    0   0.026  -20.573448   11.847260   -0.772898
  110  H       1    0.97   0.01         0    0    0   0.026  -23.597388   11.981242   -2.098541
  111  C       4    3.48   0.00         3    0    0  -0.041  -20.768090   10.144806   -4.489800
  112  H       1    0.97   0.00         0    0    0   0.027  -22.185007    9.203344   -5.674659
  113  H       1    0.97   0.01         0    0    0   0.027  -20.265234   11.886566   -5.502316
  114  C       4    3.53   0.00         3    0    0  -0.039  -18.446373    8.407581   -4.203318
  115  H       1    0.97   0.00         0    0    0   0.026  -16.965961    9.404978   -3.151118
  116  H       1    0.97   0.00         0    0    0   0.026  -17.619239    7.970298   -6.052793
 
          #atoms :   116
          #bonds :   122
          #angl  :   260
          #tors  :   411
          #nmol  :   1
          #optfrag :   1
           ------------------------------------------------- 
          |                   G F N - F F                   |
          |          A general generic force-field          |
          |                  Version 1.0.3                  | 
           ------------------------------------------------- 
          Number of HB bonds (bound hydrogen)     0
          Number of HB bonds (unbound hydrogen)   0
          Number of XB bonds                      0

 E+G (total)                   0 d,  0 h,  0 min,  0.007 sec
 distance/D3 list               ...        0 min,  0.000 sec (  0.349%)
 non bonded repulsion           ...        0 min,  0.000 sec (  5.026%)
 dCN                            ...        0 min,  0.000 sec (  2.330%)
 EEQ energy and q               ...        0 min,  0.001 sec ( 18.358%)
 D3                             ...        0 min,  0.000 sec (  5.389%)
 EEQ gradient                   ...        0 min,  0.000 sec (  2.840%)
 bonds                          ...        0 min,  0.001 sec (  9.521%)
 bend and torsion               ...        0 min,  0.000 sec (  6.256%)
 bonded ATM                     ...        0 min,  0.003 sec ( 49.211%)
 HB/XB (incl list setup)        ...        0 min,  0.000 sec (  0.279%)

         :::::::::::::::::::::::::::::::::::::::::::::::::::::
         ::                     SUMMARY                     ::
         :::::::::::::::::::::::::::::::::::::::::::::::::::::
         :: total energy             -16.639678437156 Eh    ::
         :: gradient norm              1.423714273010 Eh/a0 ::
         ::.................................................::
         :: bond energy              -17.652186601575 Eh    ::
         :: angle energy               0.066106098731 Eh    ::
         :: torsion energy             0.061164733219 Eh    ::
         :: repulsion energy           1.021123772872 Eh    ::
         :: electrostat energy        -0.144587922180 Eh    ::
         :: dispersion energy         -0.144642931245 Eh    ::
         :: HB energy                  0.000000000000 Eh    ::
         :: XB energy                  0.000000000000 Eh    ::
         :: bonded atm energy         -0.017799363170 Eh    ::
         :: external energy            0.000000000000 Eh    ::
         :: add. restraining           0.171143776193 Eh    ::
         :: total charge              -0.000000000000 e     ::
         :::::::::::::::::::::::::::::::::::::::::::::::::::::

      ----------------------------------------------------------- 
     |                   =====================                   |
     |                        A N C O P T                        |
     |                   =====================                   |
     |               Approximate Normal Coordinate               |
     |                Rational Function Optimizer                |
      ----------------------------------------------------------- 
      ----------------------------------------------------------- 
     |                   =====================                   |
     |                        A N C O P T                        |
     |                   =====================                   |
     |               Approximate Normal Coordinate               |
     |                Rational Function Optimizer                |
      ----------------------------------------------------------- 

          ...................................................
          :                      SETUP                      :
          :.................................................:
          :   optimization level            normal          :
          :   max. optcycles                   348          :
          :   ANC micro-cycles                  20          :
          :   degrees of freedom               342          :
          :.................................................:
          :   RF solver                   davidson          :
          :   write xtbopt.log                true          :
          :   linear?                        false          :
          :   energy convergence         0.5000000E-05 Eh   :
          :   grad. convergence          0.1000000E-02 Eh/α :
          :   maxmium RF displ.          1.0000000          :
          :   Hlow (freq-cutoff)         0.1000000E-01      :
          :   Hmax (freq-cutoff)         5.0000000          :
          :   S6 in model hess.         20.0000000          :
          ...................................................

generating ANC from exact Hessian ...
Using GFN-FF Lindh-Hessian
 Shifting diagonal of input Hessian by   9.969751188689190E-003
 Lowest  eigenvalues of input Hessian
    0.000000    0.000000    0.000000    0.000000    0.000000    0.000000
    0.010000    0.010012    0.010016    0.010079    0.010155    0.010259
    0.010274    0.010303    0.010310    0.010336    0.010361    0.010456
 Highest eigenvalues
    7.752902    8.378497    8.914458   10.161890   11.304029   14.611260
 

........................................................................
.............................. CYCLE    1 ..............................
........................................................................
     iter. time                 ...        0 min,  0.007 sec
 * total energy  :   -16.6396784 Eh     change        0.0000000E+00 Eh
   gradient norm :     1.4237143 Eh/α   predicted     0.0000000E+00 (    NaN%)
   displ. norm   :     0.3338476 α      lambda       -0.4224189E+00
   maximum displ.:     0.2178459 α      in ANC's #341, #334, #215, ...

........................................................................
.............................. CYCLE    2 ..............................
........................................................................
     iter. time                 ...        0 min,  0.007 sec
 * total energy  :   -16.7494130 Eh     change       -0.1097346E+00 Eh
   gradient norm :     1.0485562 Eh/α   predicted    -0.2347500E+00 ( 113.93%)
   displ. norm   :     0.1718848 α      lambda       -0.1243196E+00
   maximum displ.:     0.1052984 α      in ANC's #341, #215, #213, ...

........................................................................
.............................. CYCLE    3 ..............................
........................................................................
     iter. time                 ...        0 min,  0.007 sec
 * total energy  :   -16.8073360 Eh     change       -0.5792297E-01 Eh
   gradient norm :     0.1303599 Eh/α   predicted    -0.6399794E-01 (  10.49%)
   displ. norm   :     0.0908596 α      lambda       -0.4007526E-02
   maximum displ.:     0.0450902 α      in ANC's #25, #215, #18, ...

........................................................................
.............................. CYCLE    4 ..............................
........................................................................
     iter. time                 ...        0 min,  0.007 sec
 * total energy  :   -16.8084298 Eh     change       -0.1093850E-02 Eh
   gradient norm :     0.1347321 Eh/α   predicted    -0.2025631E-02 (  85.18%)
   displ. norm   :     0.0779693 α      lambda       -0.4000147E-02
   maximum displ.:     0.0433621 α      in ANC's #25, #18, #22, ...

........................................................................
.............................. CYCLE    5 ..............................
........................................................................
     iter. time                 ...        0 min,  0.007 sec
 * total energy  :   -16.8090300 Eh     change       -0.6001283E-03 Eh
   gradient norm :     0.0646293 Eh/α   predicted    -0.1009132E-02 (  68.15%)
   displ. norm   :     0.0466815 α      lambda       -0.1724186E-02
   maximum displ.:     0.0240297 α      in ANC's #25, #18, #22, ...

........................................................................
.............................. CYCLE    6 ..............................
........................................................................
     iter. time                 ...        0 min,  0.007 sec
 * total energy  :   -16.8092943 Eh     change       -0.2643447E-03 Eh
   gradient norm :     0.0214810 Eh/α   predicted    -0.2900753E-03 (   9.73%)
   displ. norm   :     0.0510354 α      lambda       -0.4404472E-03
   maximum displ.:     0.0268528 α      in ANC's #25, #18, #22, ...

........................................................................
.............................. CYCLE    7 ..............................
........................................................................
     iter. time                 ...        0 min,  0.007 sec
 * total energy  :   -16.8093554 Eh     change       -0.6112312E-04 Eh
   gradient norm :     0.0114293 Eh/α   predicted    -0.5553760E-04 (  -9.14%)
   displ. norm   :     0.0790254 α      lambda       -0.4141944E-03
   maximum displ.:     0.0397729 α      in ANC's #25, #18, #22, ...

........................................................................
.............................. CYCLE    8 ..............................
........................................................................
     iter. time                 ...        0 min,  0.007 sec
 * total energy  :   -16.8094047 Eh     change       -0.4926318E-04 Eh
   gradient norm :     0.0102237 Eh/α   predicted    -0.3497172E-04 ( -29.01%)
   displ. norm   :     0.1450321 α      lambda       -0.5977728E-03
   maximum displ.:     0.0666919 α      in ANC's #25, #18, #1, ...

........................................................................
.............................. CYCLE    9 ..............................
........................................................................
     iter. time                 ...        0 min,  0.007 sec
 * total energy  :   -16.8094520 Eh     change       -0.4734186E-04 Eh
   gradient norm :     0.0054220 Eh/α   predicted    -0.4499215E-04 (  -4.96%)
   displ. norm   :     0.0607683 α      lambda       -0.1469225E-03
   maximum displ.:     0.0253144 α      in ANC's #18, #1, #6, ...

........................................................................
.............................. CYCLE   10 ..............................
........................................................................
     iter. time                 ...        0 min,  0.007 sec
 * total energy  :   -16.8094658 Eh     change       -0.1379075E-04 Eh
   gradient norm :     0.0032958 Eh/α   predicted    -0.9999339E-05 ( -27.49%)
   displ. norm   :     0.0631925 α      lambda       -0.1474993E-03
   maximum displ.:     0.0300252 α      in ANC's #1, #18, #6, ...

........................................................................
.............................. CYCLE   11 ..............................
........................................................................
     iter. time                 ...        0 min,  0.007 sec
 * total energy  :   -16.8094792 Eh     change       -0.1340170E-04 Eh
   gradient norm :     0.0028690 Eh/α   predicted    -0.8873328E-05 ( -33.79%)
   displ. norm   :     0.0899991 α      lambda       -0.1991863E-03
   maximum displ.:     0.0451545 α      in ANC's #1, #6, #18, ...

........................................................................
.............................. CYCLE   12 ..............................
........................................................................
     iter. time                 ...        0 min,  0.005 sec
 * total energy  :   -16.8094943 Eh     change       -0.1503449E-04 Eh
   gradient norm :     0.0033709 Eh/α   predicted    -0.1084541E-04 ( -27.86%)
   displ. norm   :     0.0759268 α      lambda       -0.1266549E-03
   maximum displ.:     0.0406680 α      in ANC's #1, #6, #5, ...

........................................................................
.............................. CYCLE   13 ..............................
........................................................................
     iter. time                 ...        0 min,  0.005 sec
 * total energy  :   -16.8095033 Eh     change       -0.8998012E-05 Eh
   gradient norm :     0.0020151 Eh/α   predicted    -0.6242206E-05 ( -30.63%)
   displ. norm   :     0.0581221 α      lambda       -0.9533851E-04
   maximum displ.:     0.0340225 α      in ANC's #1, #6, #5, ...

........................................................................
.............................. CYCLE   14 ..............................
........................................................................
     iter. time                 ...        0 min,  0.004 sec
 * total energy  :   -16.8095093 Eh     change       -0.5987882E-05 Eh
   gradient norm :     0.0007833 Eh/α   predicted    -0.3949426E-05 ( -34.04%)
   displ. norm   :     0.0811139 α      lambda       -0.8981912E-04
   maximum displ.:     0.0498503 α      in ANC's #1, #5, #6, ...

........................................................................
.............................. CYCLE   15 ..............................
........................................................................
     iter. time                 ...        0 min,  0.003 sec
 * total energy  :   -16.8095164 Eh     change       -0.7160801E-05 Eh
   gradient norm :     0.0021134 Eh/α   predicted    -0.3442679E-05 ( -51.92%)
   displ. norm   :     0.0426186 α      lambda       -0.7578496E-04
   maximum displ.:     0.0258176 α      in ANC's #1, #5, #10, ...

........................................................................
.............................. CYCLE   16 ..............................
........................................................................
     iter. time                 ...        0 min,  0.003 sec
 * total energy  :   -16.8095212 Eh     change       -0.4786799E-05 Eh
   gradient norm :     0.0018328 Eh/α   predicted    -0.2705271E-05 ( -43.48%)
   displ. norm   :     0.1281147 α      lambda       -0.1595754E-03
   maximum displ.:     0.0751163 α      in ANC's #1, #5, #10, ...

........................................................................
.............................. CYCLE   17 ..............................
........................................................................
     iter. time                 ...        0 min,  0.003 sec
 * total energy  :   -16.8095310 Eh     change       -0.9806186E-05 Eh
   gradient norm :     0.0009256 Eh/α   predicted    -0.5476014E-05 ( -44.16%)
   displ. norm   :     0.0802866 α      lambda       -0.6069219E-04
   maximum displ.:     0.0484933 α      in ANC's #1, #5, #10, ...

........................................................................
.............................. CYCLE   18 ..............................
........................................................................
     iter. time                 ...        0 min,  0.003 sec
 * total energy  :   -16.8095362 Eh     change       -0.5149309E-05 Eh
   gradient norm :     0.0010462 Eh/α   predicted    -0.1976783E-05 ( -61.61%)
   displ. norm   :     0.1105025 α      lambda       -0.1115763E-03
   maximum displ.:     0.0662972 α      in ANC's #1, #5, #10, ...

........................................................................
.............................. CYCLE   19 ..............................
........................................................................
     iter. time                 ...        0 min,  0.003 sec
 * total energy  :   -16.8095442 Eh     change       -0.8070043E-05 Eh
   gradient norm :     0.0009517 Eh/α   predicted    -0.3445113E-05 ( -57.31%)
   displ. norm   :     0.1373380 α      lambda       -0.1226942E-03
   maximum displ.:     0.0826672 α      in ANC's #1, #5, #2, ...

........................................................................
.............................. CYCLE   20 ..............................
........................................................................
     iter. time                 ...        0 min,  0.003 sec
 * total energy  :   -16.8095516 Eh     change       -0.7365534E-05 Eh
   gradient norm :     0.0019806 Eh/α   predicted    -0.3605783E-05 ( -51.05%)
   displ. norm   :     0.1321156 α      lambda       -0.9221077E-04
   maximum displ.:     0.0795681 α      in ANC's #1, #5, #2, ...
 * RMSD in coord.:     0.1054119 α      energy gain  -0.1698732E+00 Eh

generating ANC from exact Hessian ...
Using GFN-FF Lindh-Hessian
 Shifting diagonal of input Hessian by   9.978135395839922E-003
 Lowest  eigenvalues of input Hessian
    0.000000    0.000000    0.000000    0.000000    0.000000    0.000000
    0.010000    0.010006    0.010024    0.010036    0.010041    0.010261
    0.010272    0.010294    0.010309    0.010331    0.010362    0.010411
 Highest eigenvalues
    7.753702    8.308333    8.836265   10.158449   11.289802   14.594399
 

........................................................................
.............................. CYCLE   21 ..............................
........................................................................
     iter. time                 ...        0 min,  0.003 sec
 * total energy  :   -16.8095570 Eh     change       -0.5420589E-05 Eh
   gradient norm :     0.0017787 Eh/α   predicted     0.0000000E+00 (-100.00%)
   displ. norm   :     0.0314292 α      lambda        0.6785331E-05
   maximum displ.:     0.0281310 α      in ANC's #1, #20, #19, ...

........................................................................
.............................. CYCLE   22 ..............................
........................................................................
     iter. time                 ...        0 min,  0.003 sec
 * total energy  :   -16.8095645 Eh     change       -0.7499736E-05 Eh
   gradient norm :     0.0022745 Eh/α   predicted    -0.2997718E-05 ( -60.03%)
   displ. norm   :     0.0376896 α      lambda       -0.7782174E-05
   maximum displ.:     0.0306074 α      in ANC's #1, #20, #6, ...

........................................................................
.............................. CYCLE   23 ..............................
........................................................................
     iter. time                 ...        0 min,  0.003 sec
 * total energy  :   -16.8095723 Eh     change       -0.7816561E-05 Eh
   gradient norm :     0.0012442 Eh/α   predicted    -0.4443031E-05 ( -43.16%)
   displ. norm   :     0.0795989 α      lambda       -0.1002553E-04
   maximum displ.:     0.0625599 α      in ANC's #1, #6, #20, ...

........................................................................
.............................. CYCLE   24 ..............................
........................................................................
     iter. time                 ...        0 min,  0.003 sec
 * total energy  :   -16.8095834 Eh     change       -0.1109525E-04 Eh
   gradient norm :     0.0052964 Eh/α   predicted    -0.5032621E-05 ( -54.64%)
   displ. norm   :     0.0533395 α      lambda       -0.1037567E-04
   maximum displ.:     0.0414005 α      in ANC's #1, #6, #10, ...

........................................................................
.............................. CYCLE   25 ..............................
........................................................................
     iter. time                 ...        0 min,  0.003 sec
 * total energy  :   -16.8095912 Eh     change       -0.7825510E-05 Eh
   gradient norm :     0.0027020 Eh/α   predicted    -0.5218041E-05 ( -33.32%)
   displ. norm   :     0.0439266 α      lambda       -0.7095650E-05
   maximum displ.:     0.0343605 α      in ANC's #1, #10, #6, ...

........................................................................
.............................. CYCLE   26 ..............................
........................................................................
     iter. time                 ...        0 min,  0.003 sec
 * total energy  :   -16.8095983 Eh     change       -0.7073398E-05 Eh
   gradient norm :     0.0031219 Eh/α   predicted    -0.3753204E-05 ( -46.94%)
   displ. norm   :     0.0558500 α      lambda       -0.1080886E-04
   maximum displ.:     0.0430045 α      in ANC's #1, #10, #4, ...

........................................................................
.............................. CYCLE   27 ..............................
........................................................................
     iter. time                 ...        0 min,  0.003 sec
 * total energy  :   -16.8096080 Eh     change       -0.9726987E-05 Eh
   gradient norm :     0.0017746 Eh/α   predicted    -0.5422951E-05 ( -44.25%)
   displ. norm   :     0.1091485 α      lambda       -0.1238185E-04
   maximum displ.:     0.0831347 α      in ANC's #1, #10, #4, ...

........................................................................
.............................. CYCLE   28 ..............................
........................................................................
     iter. time                 ...        0 min,  0.003 sec
 * total energy  :   -16.8096228 Eh     change       -0.1471009E-04 Eh
   gradient norm :     0.0040630 Eh/α   predicted    -0.6231217E-05 ( -57.64%)
   displ. norm   :     0.0664201 α      lambda       -0.1010928E-04
   maximum displ.:     0.0505177 α      in ANC's #1, #10, #4, ...

........................................................................
.............................. CYCLE   29 ..............................
........................................................................
     iter. time                 ...        0 min,  0.003 sec
 * total energy  :   -16.8096312 Eh     change       -0.8491408E-05 Eh
   gradient norm :     0.0024576 Eh/α   predicted    -0.5086952E-05 ( -40.09%)
   displ. norm   :     0.0577037 α      lambda       -0.8071820E-05
   maximum displ.:     0.0436229 α      in ANC's #1, #4, #10, ...

........................................................................
.............................. CYCLE   30 ..............................
........................................................................
     iter. time                 ...        0 min,  0.003 sec
 * total energy  :   -16.8096391 Eh     change       -0.7879835E-05 Eh
   gradient norm :     0.0020346 Eh/α   predicted    -0.4145321E-05 ( -47.39%)
   displ. norm   :     0.0659574 α      lambda       -0.1040325E-04
   maximum displ.:     0.0494055 α      in ANC's #1, #4, #10, ...

........................................................................
.............................. CYCLE   31 ..............................
........................................................................
     iter. time                 ...        0 min,  0.003 sec
 * total energy  :   -16.8096489 Eh     change       -0.9782443E-05 Eh
   gradient norm :     0.0012278 Eh/α   predicted    -0.5228831E-05 ( -46.55%)
   displ. norm   :     0.1224085 α      lambda       -0.1234008E-04
   maximum displ.:     0.0913725 α      in ANC's #1, #4, #10, ...

........................................................................
.............................. CYCLE   32 ..............................
........................................................................
     iter. time                 ...        0 min,  0.003 sec
 * total energy  :   -16.8096653 Eh     change       -0.1642809E-04 Eh
   gradient norm :     0.0017458 Eh/α   predicted    -0.6215888E-05 ( -62.16%)
   displ. norm   :     0.1205265 α      lambda       -0.1049221E-04
   maximum displ.:     0.0902981 α      in ANC's #1, #4, #2, ...

........................................................................
.............................. CYCLE   33 ..............................
........................................................................
     iter. time                 ...        0 min,  0.003 sec
 * total energy  :   -16.8096797 Eh     change       -0.1437007E-04 Eh
   gradient norm :     0.0015490 Eh/α   predicted    -0.5283071E-05 ( -63.24%)
   displ. norm   :     0.1082865 α      lambda       -0.9251631E-05
   maximum displ.:     0.0809858 α      in ANC's #1, #4, #2, ...

........................................................................
.............................. CYCLE   34 ..............................
........................................................................
     iter. time                 ...        0 min,  0.003 sec
 * total energy  :   -16.8096927 Eh     change       -0.1294675E-04 Eh
   gradient norm :     0.0017296 Eh/α   predicted    -0.4651800E-05 ( -64.07%)
   displ. norm   :     0.1107828 α      lambda       -0.9843022E-05
   maximum displ.:     0.0819782 α      in ANC's #1, #4, #2, ...

........................................................................
.............................. CYCLE   35 ..............................
........................................................................
     iter. time                 ...        0 min,  0.003 sec
 * total energy  :   -16.8097065 Eh     change       -0.1383667E-04 Eh
   gradient norm :     0.0020575 Eh/α   predicted    -0.4952464E-05 ( -64.21%)
   displ. norm   :     0.0862125 α      lambda       -0.1185529E-04
   maximum displ.:     0.0630058 α      in ANC's #1, #4, #2, ...

........................................................................
.............................. CYCLE   36 ..............................
........................................................................
     iter. time                 ...        0 min,  0.003 sec
 * total energy  :   -16.8097177 Eh     change       -0.1125316E-04 Eh
   gradient norm :     0.0006633 Eh/α   predicted    -0.5972336E-05 ( -46.93%)
   displ. norm   :     0.1636988 α      lambda       -0.1423141E-04
   maximum displ.:     0.1184100 α      in ANC's #1, #4, #12, ...

........................................................................
.............................. CYCLE   37 ..............................
........................................................................
     iter. time                 ...        0 min,  0.003 sec
 * total energy  :   -16.8097376 Eh     change       -0.1980782E-04 Eh
   gradient norm :     0.0012554 Eh/α   predicted    -0.7200829E-05 ( -63.65%)
   displ. norm   :     0.1782788 α      lambda       -0.1408298E-04
   maximum displ.:     0.1285786 α      in ANC's #1, #4, #12, ...

........................................................................
.............................. CYCLE   38 ..............................
........................................................................
     iter. time                 ...        0 min,  0.003 sec
 * total energy  :   -16.8097571 Eh     change       -0.1954947E-04 Eh
   gradient norm :     0.0010748 Eh/α   predicted    -0.7143716E-05 ( -63.46%)
   displ. norm   :     0.1742780 α      lambda       -0.1269807E-04
   maximum displ.:     0.1257951 α      in ANC's #1, #4, #12, ...

........................................................................
.............................. CYCLE   39 ..............................
........................................................................
     iter. time                 ...        0 min,  0.003 sec
 * total energy  :   -16.8097746 Eh     change       -0.1750616E-04 Eh
   gradient norm :     0.0017198 Eh/α   predicted    -0.6438671E-05 ( -63.22%)
   displ. norm   :     0.1616067 α      lambda       -0.1128224E-04
   maximum displ.:     0.1169582 α      in ANC's #1, #4, #12, ...

........................................................................
.............................. CYCLE   40 ..............................
........................................................................
     iter. time                 ...        0 min,  0.003 sec
 * total energy  :   -16.8097902 Eh     change       -0.1559309E-04 Eh
   gradient norm :     0.0011008 Eh/α   predicted    -0.5706892E-05 ( -63.40%)
   displ. norm   :     0.1456229 α      lambda       -0.9577006E-05
   maximum displ.:     0.1060587 α      in ANC's #1, #4, #12, ...

........................................................................
.............................. CYCLE   41 ..............................
........................................................................
     iter. time                 ...        0 min,  0.003 sec
 * total energy  :   -16.8098038 Eh     change       -0.1355301E-04 Eh
   gradient norm :     0.0006426 Eh/α   predicted    -0.4837284E-05 ( -64.31%)
   displ. norm   :     0.1317535 α      lambda       -0.8432251E-05
   maximum displ.:     0.0969241 α      in ANC's #1, #4, #12, ...

........................................................................
.............................. CYCLE   42 ..............................
........................................................................
     iter. time                 ...        0 min,  0.003 sec
 * total energy  :   -16.8098157 Eh     change       -0.1191299E-04 Eh
   gradient norm :     0.0009554 Eh/α   predicted    -0.4251875E-05 ( -64.31%)
   displ. norm   :     0.1166171 α      lambda       -0.7420777E-05
   maximum displ.:     0.0867558 α      in ANC's #1, #4, #12, ...
 * RMSD in coord.:     0.1895943 α      energy gain  -0.2640791E-03 Eh

generating ANC from exact Hessian ...
Using GFN-FF Lindh-Hessian
 Shifting diagonal of input Hessian by   9.978359649807885E-003
 Lowest  eigenvalues of input Hessian
    0.000000    0.000000    0.000000    0.000000    0.000000    0.000000
    0.010000    0.010007    0.010024    0.010036    0.010041    0.010260
    0.010274    0.010296    0.010310    0.010333    0.010367    0.010413
 Highest eigenvalues
    7.757556    8.307543    8.831897   10.178176   11.293132   14.601673
 

........................................................................
.............................. CYCLE   43 ..............................
........................................................................
     iter. time                 ...        0 min,  0.003 sec
 * total energy  :   -16.8098260 Eh     change       -0.1037585E-04 Eh
   gradient norm :     0.0009142 Eh/α   predicted     0.0000000E+00 (-100.00%)
   displ. norm   :     0.0015150 α      lambda        0.2358844E-05
   maximum displ.:     0.0009184 α      in ANC's #336, #338, #1, ...

........................................................................
.............................. CYCLE   44 ..............................
........................................................................
     iter. time                 ...        0 min,  0.003 sec
 * total energy  :   -16.8098208 Eh     change        0.5275198E-05 Eh
   gradient norm :     0.0088068 Eh/α   predicted     0.1178695E-05 ( -77.66%)
   displ. norm   :     0.0130443 α      lambda       -0.8301824E-05
   maximum displ.:     0.0117702 α      in ANC's #1, #15, #2, ...

........................................................................
.............................. CYCLE   45 ..............................
........................................................................
     iter. time                 ...        0 min,  0.003 sec
 * total energy  :   -16.8098274 Eh     change       -0.6601503E-05 Eh
   gradient norm :     0.0029901 Eh/α   predicted    -0.4495490E-05 ( -31.90%)
   displ. norm   :     0.0229988 α      lambda       -0.5072498E-05
   maximum displ.:     0.0203492 α      in ANC's #1, #15, #2, ...

........................................................................
.............................. CYCLE   46 ..............................
........................................................................
     iter. time                 ...        0 min,  0.003 sec
 * total energy  :   -16.8098309 Eh     change       -0.3531028E-05 Eh
   gradient norm :     0.0016373 Eh/α   predicted    -0.2538361E-05 ( -28.11%)
   displ. norm   :     0.0318194 α      lambda       -0.2437309E-05
   maximum displ.:     0.0269393 α      in ANC's #1, #15, #2, ...

........................................................................
.............................. CYCLE   47 ..............................
........................................................................
     iter. time                 ...        0 min,  0.003 sec
 * total energy  :   -16.8098343 Eh     change       -0.3358500E-05 Eh
   gradient norm :     0.0036030 Eh/α   predicted    -0.1246630E-05 ( -62.88%)
   displ. norm   :     0.0250036 α      lambda       -0.3283521E-05
   maximum displ.:     0.0193614 α      in ANC's #1, #15, #2, ...

........................................................................
.............................. CYCLE   48 ..............................
........................................................................
     iter. time                 ...        0 min,  0.003 sec
 * total energy  :   -16.8098375 Eh     change       -0.3193940E-05 Eh
   gradient norm :     0.0031120 Eh/α   predicted    -0.1643301E-05 ( -48.55%)
   displ. norm   :     0.0443386 α      lambda       -0.5811008E-05
   maximum displ.:     0.0326879 α      in ANC's #1, #15, #2, ...

........................................................................
.............................. CYCLE   49 ..............................
........................................................................
     iter. time                 ...        0 min,  0.003 sec
 * total energy  :   -16.8098427 Eh     change       -0.5260429E-05 Eh
   gradient norm :     0.0018801 Eh/α   predicted    -0.2911642E-05 ( -44.65%)
   displ. norm   :     0.1005905 α      lambda       -0.7769549E-05
   maximum displ.:     0.0730688 α      in ANC's #1, #2, #15, ...

........................................................................
.............................. CYCLE   50 ..............................
........................................................................
     iter. time                 ...        0 min,  0.003 sec
 * total energy  :   -16.8098506 Eh     change       -0.7892233E-05 Eh
   gradient norm :     0.0060765 Eh/α   predicted    -0.3938777E-05 ( -50.09%)
   displ. norm   :     0.0589278 α      lambda       -0.6601422E-05
   maximum displ.:     0.0432561 α      in ANC's #1, #2, #15, ...

........................................................................
.............................. CYCLE   51 ..............................
........................................................................
     iter. time                 ...        0 min,  0.003 sec
 * total energy  :   -16.8098559 Eh     change       -0.5306726E-05 Eh
   gradient norm :     0.0036361 Eh/α   predicted    -0.3380568E-05 ( -36.30%)
   displ. norm   :     0.0446156 α      lambda       -0.4167407E-05
   maximum displ.:     0.0338248 α      in ANC's #1, #2, #15, ...

........................................................................
.............................. CYCLE   52 ..............................
........................................................................
     iter. time                 ...        0 min,  0.003 sec
 * total energy  :   -16.8098597 Eh     change       -0.3799198E-05 Eh
   gradient norm :     0.0039041 Eh/α   predicted    -0.2167438E-05 ( -42.95%)
   displ. norm   :     0.0380607 α      lambda       -0.4323396E-05
   maximum displ.:     0.0291184 α      in ANC's #1, #2, #5, ...

........................................................................
.............................. CYCLE   53 ..............................
........................................................................
     iter. time                 ...        0 min,  0.003 sec
 * total energy  :   -16.8098638 Eh     change       -0.4066303E-05 Eh
   gradient norm :     0.0030271 Eh/α   predicted    -0.2183475E-05 ( -46.30%)
   displ. norm   :     0.0476125 α      lambda       -0.5622258E-05
   maximum displ.:     0.0359801 α      in ANC's #1, #2, #3, ...

........................................................................
.............................. CYCLE   54 ..............................
........................................................................
     iter. time                 ...        0 min,  0.003 sec
 * total energy  :   -16.8098689 Eh     change       -0.5097439E-05 Eh
   gradient norm :     0.0014753 Eh/α   predicted    -0.2822218E-05 ( -44.63%)
   displ. norm   :     0.0888555 α      lambda       -0.6051069E-05
   maximum displ.:     0.0661243 α      in ANC's #1, #2, #3, ...

........................................................................
.............................. CYCLE   55 ..............................
........................................................................
     iter. time                 ...        0 min,  0.003 sec
 * total energy  :   -16.8098767 Eh     change       -0.7869705E-05 Eh
   gradient norm :     0.0034596 Eh/α   predicted    -0.3040520E-05 ( -61.36%)
   displ. norm   :     0.0555650 α      lambda       -0.5094055E-05
   maximum displ.:     0.0408282 α      in ANC's #1, #2, #3, ...

........................................................................
.............................. CYCLE   56 ..............................
........................................................................
     iter. time                 ...        0 min,  0.003 sec
 * total energy  :   -16.8098815 Eh     change       -0.4788435E-05 Eh
   gradient norm :     0.0041157 Eh/α   predicted    -0.2555395E-05 ( -46.63%)
   displ. norm   :     0.0637989 α      lambda       -0.6197195E-05
   maximum displ.:     0.0459510 α      in ANC's #1, #2, #3, ...

........................................................................
.............................. CYCLE   57 ..............................
........................................................................
     iter. time                 ...        0 min,  0.003 sec
 * total energy  :   -16.8098875 Eh     change       -0.5927952E-05 Eh
   gradient norm :     0.0036364 Eh/α   predicted    -0.3111800E-05 ( -47.51%)
   displ. norm   :     0.0857860 α      lambda       -0.8362784E-05
   maximum displ.:     0.0610433 α      in ANC's #1, #2, #3, ...

........................................................................
.............................. CYCLE   58 ..............................
........................................................................
     iter. time                 ...        0 min,  0.003 sec
 * total energy  :   -16.8098954 Eh     change       -0.7949771E-05 Eh
   gradient norm :     0.0023080 Eh/α   predicted    -0.4212962E-05 ( -47.01%)
   displ. norm   :     0.1150258 α      lambda       -0.1061944E-04
   maximum displ.:     0.0812612 α      in ANC's #1, #2, #3, ...

........................................................................
.............................. CYCLE   59 ..............................
........................................................................
     iter. time                 ...        0 min,  0.003 sec
 * total energy  :   -16.8099054 Eh     change       -0.9951002E-05 Eh
   gradient norm :     0.0004997 Eh/α   predicted    -0.5381091E-05 ( -45.92%)
   displ. norm   :     0.2090935 α      lambda       -0.1180684E-04
   maximum displ.:     0.1469841 α      in ANC's #1, #2, #3, ...

........................................................................
.............................. CYCLE   60 ..............................
........................................................................
     iter. time                 ...        0 min,  0.003 sec
 * total energy  :   -16.8099213 Eh     change       -0.1597128E-04 Eh
   gradient norm :     0.0026876 Eh/α   predicted    -0.6026237E-05 ( -62.27%)
   displ. norm   :     0.1385397 α      lambda       -0.1060497E-04
   maximum displ.:     0.0972464 α      in ANC's #1, #2, #3, ...

........................................................................
.............................. CYCLE   61 ..............................
........................................................................
     iter. time                 ...        0 min,  0.003 sec
 * total energy  :   -16.8099314 Eh     change       -0.1007402E-04 Eh
   gradient norm :     0.0036302 Eh/α   predicted    -0.5405860E-05 ( -46.34%)
   displ. norm   :     0.1522563 α      lambda       -0.1176572E-04
   maximum displ.:     0.1065104 α      in ANC's #1, #2, #3, ...

........................................................................
.............................. CYCLE   62 ..............................
........................................................................
     iter. time                 ...        0 min,  0.003 sec
 * total energy  :   -16.8099426 Eh     change       -0.1119712E-04 Eh
   gradient norm :     0.0038204 Eh/α   predicted    -0.6019858E-05 ( -46.24%)
   displ. norm   :     0.1770737 α      lambda       -0.1361616E-04
   maximum displ.:     0.1237020 α      in ANC's #1, #2, #3, ...

........................................................................
.............................. CYCLE   63 ..............................
........................................................................
     iter. time                 ...        0 min,  0.003 sec
 * total energy  :   -16.8099554 Eh     change       -0.1283430E-04 Eh
   gradient norm :     0.0032900 Eh/α   predicted    -0.7028154E-05 ( -45.24%)
   displ. norm   :     0.2010804 α      lambda       -0.1467703E-04
   maximum displ.:     0.1406485 α      in ANC's #1, #2, #3, ...

........................................................................
.............................. CYCLE   64 ..............................
........................................................................
     iter. time                 ...        0 min,  0.003 sec
 * total energy  :   -16.8099691 Eh     change       -0.1361773E-04 Eh
   gradient norm :     0.0022214 Eh/α   predicted    -0.7635580E-05 ( -43.93%)
   displ. norm   :     0.2019546 α      lambda       -0.1342071E-04
   maximum displ.:     0.1417909 α      in ANC's #1, #2, #3, ...

........................................................................
.............................. CYCLE   65 ..............................
........................................................................
     iter. time                 ...        0 min,  0.003 sec
 * total energy  :   -16.8099814 Eh     change       -0.1234559E-04 Eh
   gradient norm :     0.0010253 Eh/α   predicted    -0.6984428E-05 ( -43.43%)
   displ. norm   :     0.2644639 α      lambda       -0.1062123E-04
   maximum displ.:     0.1865662 α      in ANC's #1, #2, #5, ...

........................................................................
.............................. CYCLE   66 ..............................
........................................................................
     iter. time                 ...        0 min,  0.003 sec
 * total energy  :   -16.8099955 Eh     change       -0.1413804E-04 Eh
   gradient norm :     0.0012676 Eh/α   predicted    -0.5476237E-05 ( -61.27%)
   displ. norm   :     0.1913755 α      lambda       -0.7127003E-05
   maximum displ.:     0.1362225 α      in ANC's #1, #2, #5, ...
 * RMSD in coord.:     0.2023510 α      energy gain  -0.1798729E-03 Eh

generating ANC from exact Hessian ...
Using GFN-FF Lindh-Hessian
 Shifting diagonal of input Hessian by   9.978383062813527E-003
 Lowest  eigenvalues of input Hessian
    0.000000    0.000000    0.000000    0.000000    0.000000    0.000000
    0.010000    0.010007    0.010024    0.010036    0.010041    0.010261
    0.010274    0.010297    0.010310    0.010334    0.010367    0.010412
 Highest eigenvalues
    7.749858    8.309245    8.841775   10.144983   11.295421   14.594456
 

........................................................................
.............................. CYCLE   67 ..............................
........................................................................
     iter. time                 ...        0 min,  0.003 sec
 * total energy  :   -16.8100050 Eh     change       -0.9464103E-05 Eh
   gradient norm :     0.0022844 Eh/α   predicted     0.0000000E+00 (-100.00%)
   displ. norm   :     0.0106576 α      lambda        0.4569569E-05
   maximum displ.:     0.0076405 α      in ANC's #1, #6, #15, ...

........................................................................
.............................. CYCLE   68 ..............................
........................................................................
     iter. time                 ...        0 min,  0.003 sec
 * total energy  :   -16.8100065 Eh     change       -0.1491067E-05 Eh
   gradient norm :     0.0014543 Eh/α   predicted    -0.1186407E-05 ( -20.43%)
   displ. norm   :     0.0292146 α      lambda       -0.2140403E-05
   maximum displ.:     0.0187444 α      in ANC's #1, #6, #15, ...

........................................................................
.............................. CYCLE   69 ..............................
........................................................................
     iter. time                 ...        0 min,  0.003 sec
 * total energy  :   -16.8100094 Eh     change       -0.2921041E-05 Eh
   gradient norm :     0.0023194 Eh/α   predicted    -0.1109446E-05 ( -62.02%)
   displ. norm   :     0.0543313 α      lambda       -0.5808671E-05
   maximum displ.:     0.0330443 α      in ANC's #1, #6, #15, ...

........................................................................
.............................. CYCLE   70 ..............................
........................................................................
     iter. time                 ...        0 min,  0.003 sec
 * total energy  :   -16.8100138 Eh     change       -0.4332827E-05 Eh
   gradient norm :     0.0032358 Eh/α   predicted    -0.2926868E-05 ( -32.45%)
   displ. norm   :     0.0741665 α      lambda       -0.6526001E-05
   maximum displ.:     0.0459620 α      in ANC's #1, #6, #15, ...

........................................................................
.............................. CYCLE   71 ..............................
........................................................................
     iter. time                 ...        0 min,  0.003 sec
 * total energy  :   -16.8100172 Eh     change       -0.3417992E-05 Eh
   gradient norm :     0.0033406 Eh/α   predicted    -0.3283786E-05 (  -3.93%)
   displ. norm   :     0.0316413 α      lambda       -0.2272721E-05
   maximum displ.:     0.0216374 α      in ANC's #1, #6, #15, ...

........................................................................
.............................. CYCLE   72 ..............................
........................................................................
     iter. time                 ...        0 min,  0.003 sec
 * total energy  :   -16.8100189 Eh     change       -0.1737342E-05 Eh
   gradient norm :     0.0010692 Eh/α   predicted    -0.1165329E-05 ( -32.92%)
   displ. norm   :     0.0326420 α      lambda       -0.1768775E-05
   maximum displ.:     0.0234611 α      in ANC's #1, #6, #4, ...

........................................................................
.............................. CYCLE   73 ..............................
........................................................................
     iter. time                 ...        0 min,  0.003 sec
 * total energy  :   -16.8100210 Eh     change       -0.2133757E-05 Eh
   gradient norm :     0.0022935 Eh/α   predicted    -0.8920022E-06 ( -58.20%)
   displ. norm   :     0.0307963 α      lambda       -0.2659101E-05
   maximum displ.:     0.0209257 α      in ANC's #1, #4, #10, ...

........................................................................
.............................. CYCLE   74 ..............................
........................................................................
     iter. time                 ...        0 min,  0.003 sec
 * total energy  :   -16.8100233 Eh     change       -0.2283977E-05 Eh
   gradient norm :     0.0027533 Eh/α   predicted    -0.1333835E-05 ( -41.60%)
   displ. norm   :     0.0514554 α      lambda       -0.4125129E-05
   maximum displ.:     0.0339286 α      in ANC's #1, #4, #10, ...

........................................................................
.............................. CYCLE   75 ..............................
........................................................................
     iter. time                 ...        0 min,  0.003 sec
 * total energy  :   -16.8100266 Eh     change       -0.3309285E-05 Eh
   gradient norm :     0.0018359 Eh/α   predicted    -0.2070629E-05 ( -37.43%)
   displ. norm   :     0.0783988 α      lambda       -0.3006008E-05
   maximum displ.:     0.0541116 α      in ANC's #1, #4, #10, ...

........................................................................
.............................. CYCLE   76 ..............................
........................................................................
     iter. time                 ...        0 min,  0.003 sec
 * total energy  :   -16.8100297 Eh     change       -0.3074516E-05 Eh
   gradient norm :     0.0015725 Eh/α   predicted    -0.1510511E-05 ( -50.87%)
   displ. norm   :     0.0388103 α      lambda       -0.1570699E-05
   maximum displ.:     0.0289202 α      in ANC's #1, #4, #10, ...

........................................................................
.............................. CYCLE   77 ..............................
........................................................................
     iter. time                 ...        0 min,  0.003 sec
 * total energy  :   -16.8100312 Eh     change       -0.1511626E-05 Eh
   gradient norm :     0.0026316 Eh/α   predicted    -0.7911090E-06 ( -47.67%)
   displ. norm   :     0.0184567 α      lambda       -0.1660821E-05
   maximum displ.:     0.0133232 α      in ANC's #1, #4, #10, ...

........................................................................
.............................. CYCLE   78 ..............................
........................................................................
     iter. time                 ...        0 min,  0.003 sec
 * total energy  :   -16.8100327 Eh     change       -0.1499789E-05 Eh
   gradient norm :     0.0017563 Eh/α   predicted    -0.8328529E-06 ( -44.47%)
   displ. norm   :     0.0537525 α      lambda       -0.3137921E-05
   maximum displ.:     0.0366544 α      in ANC's #1, #4, #10, ...

........................................................................
.............................. CYCLE   79 ..............................
........................................................................
     iter. time                 ...        0 min,  0.003 sec
 * total energy  :   -16.8100361 Eh     change       -0.3368313E-05 Eh
   gradient norm :     0.0017951 Eh/α   predicted    -0.1574805E-05 ( -53.25%)
   displ. norm   :     0.0459980 α      lambda       -0.1897468E-05
   maximum displ.:     0.0333701 α      in ANC's #1, #4, #10, ...

........................................................................
.............................. CYCLE   80 ..............................
........................................................................
     iter. time                 ...        0 min,  0.003 sec
 * total energy  :   -16.8100384 Eh     change       -0.2357059E-05 Eh
   gradient norm :     0.0021020 Eh/α   predicted    -0.9536692E-06 ( -59.54%)
   displ. norm   :     0.0312484 α      lambda       -0.1957620E-05
   maximum displ.:     0.0223433 α      in ANC's #1, #4, #12, ...

........................................................................
.............................. CYCLE   81 ..............................
........................................................................
     iter. time                 ...        0 min,  0.003 sec
 * total energy  :   -16.8100403 Eh     change       -0.1828211E-05 Eh
   gradient norm :     0.0013508 Eh/α   predicted    -0.9855919E-06 ( -46.09%)
   displ. norm   :     0.0652901 α      lambda       -0.2682845E-05
   maximum displ.:     0.0451892 α      in ANC's #1, #4, #12, ...

........................................................................
.............................. CYCLE   82 ..............................
........................................................................
     iter. time                 ...        0 min,  0.003 sec
 * total energy  :   -16.8100437 Eh     change       -0.3469559E-05 Eh
   gradient norm :     0.0011130 Eh/α   predicted    -0.1345705E-05 ( -61.21%)
   displ. norm   :     0.0693886 α      lambda       -0.2319342E-05
   maximum displ.:     0.0483241 α      in ANC's #1, #4, #12, ...

........................................................................
.............................. CYCLE   83 ..............................
........................................................................
     iter. time                 ...        0 min,  0.003 sec
 * total energy  :   -16.8100468 Eh     change       -0.3028542E-05 Eh
   gradient norm :     0.0013769 Eh/α   predicted    -0.1167119E-05 ( -61.46%)
   displ. norm   :     0.0578396 α      lambda       -0.1780852E-05
   maximum displ.:     0.0413910 α      in ANC's #1, #4, #12, ...

........................................................................
.............................. CYCLE   84 ..............................
........................................................................
     iter. time                 ...        0 min,  0.003 sec
 * total energy  :   -16.8100491 Eh     change       -0.2301684E-05 Eh
   gradient norm :     0.0011609 Eh/α   predicted    -0.8923751E-06 ( -61.23%)
   displ. norm   :     0.0441916 α      lambda       -0.1393993E-05
   maximum displ.:     0.0327692 α      in ANC's #1, #4, #12, ...

........................................................................
.............................. CYCLE   85 ..............................
........................................................................
     iter. time                 ...        0 min,  0.003 sec
 * total energy  :   -16.8100510 Eh     change       -0.1912413E-05 Eh
   gradient norm :     0.0005779 Eh/α   predicted    -0.6991715E-06 ( -63.44%)
   displ. norm   :     0.0377796 α      lambda       -0.1282286E-05
   maximum displ.:     0.0286427 α      in ANC's #1, #4, #12, ...

   *** GEOMETRY OPTIMIZATION CONVERGED AFTER 85 ITERATIONS ***

------------------------------------------------------------------------
 total energy gain   :        -0.1703725 Eh     -106.9104 kcal/mol
 total RMSD          :         0.3833735 a0        0.2029 Å
 total power (kW/mol):        -5.2625066 (step)-1180.8281 (real)
------------------------------------------------------------------------

 ANCopt (total)                0 d,  0 h,  0 min,  0.379 sec
 optimizer setup                ...        0 min,  0.000 sec (  0.131%)
 model hessian                  ...        0 min,  0.014 sec (  3.616%)
 ANC generation                 ...        0 min,  0.051 sec ( 13.536%)
 coordinate transformation      ...        0 min,  0.003 sec (  0.664%)
 single point calculation       ...        0 min,  0.283 sec ( 74.597%)
 optimization log               ...        0 min,  0.013 sec (  3.355%)
 hessian update                 ...        0 min,  0.006 sec (  1.556%)
 rational function              ...        0 min,  0.007 sec (  1.864%)

================
 final structure:
================
 xtb: 6.7.1 (edcfbbe)
          02052616533D

116122  0     0  0            999 V2000
   -0.2725    1.0254   -0.1838 H   0  0  0  0  0  0  0  0  0  0  0  0
   -0.2730    0.8248    0.8658 C   0  0  0  0  0  0  0  0  0  0  0  0
    0.7125    0.9399    1.2632 H   0  0  0  0  0  0  0  0  0  0  0  0
   -1.8329    0.2968    1.8344 Ru  0  0  0  0  0  0  0  0  0  0  0  0
   -1.9197   -1.9926    1.7672 Cl  0  0  0  0  0  0  0  0  0  0  0  0
   -2.9473    2.3365    1.9708 Cl  0  0  0  0  0  0  0  0  0  0  0  0
   -1.0434    0.2526    4.0168 P   0  0  0  0  0  4  0  0  0  0  0  0
    0.0078    1.7108    4.4861 C   0  0  0  0  0  0  0  0  0  0  0  0
    1.0329    1.4166    4.2293 H   0  0  0  0  0  0  0  0  0  0  0  0
   -0.3459    2.9713    3.6823 C   0  0  0  0  0  0  0  0  0  0  0  0
   -0.3013    2.7659    2.6051 H   0  0  0  0  0  0  0  0  0  0  0  0
   -1.3888    3.2423    3.8804 H   0  0  0  0  0  0  0  0  0  0  0  0
    0.5751    4.1504    4.0552 C   0  0  0  0  0  0  0  0  0  0  0  0
    1.6047    3.9129    3.7606 H   0  0  0  0  0  0  0  0  0  0  0  0
    0.3062    5.0493    3.4831 H   0  0  0  0  0  0  0  0  0  0  0  0
    0.5288    4.4309    5.5696 C   0  0  0  0  0  0  0  0  0  0  0  0
   -0.4771    4.7723    5.8441 H   0  0  0  0  0  0  0  0  0  0  0  0
    1.2017    5.2588    5.8338 H   0  0  0  0  0  0  0  0  0  0  0  0
    0.8752    3.1654    6.3774 C   0  0  0  0  0  0  0  0  0  0  0  0
    0.8287    3.3645    7.4571 H   0  0  0  0  0  0  0  0  0  0  0  0
    1.9147    2.8786    6.1760 H   0  0  0  0  0  0  0  0  0  0  0  0
   -0.0575    1.9991    5.9942 C   0  0  0  0  0  0  0  0  0  0  0  0
   -1.0873    2.2597    6.2634 H   0  0  0  0  0  0  0  0  0  0  0  0
    0.1728    1.0984    6.5770 H   0  0  0  0  0  0  0  0  0  0  0  0
   -0.0566   -1.3077    4.1883 C   0  0  0  0  0  0  0  0  0  0  0  0
   -0.7513   -2.1172    3.9338 H   0  0  0  0  0  0  0  0  0  0  0  0
    0.4293   -1.5127    5.6288 C   0  0  0  0  0  0  0  0  0  0  0  0
    1.1089   -0.6932    5.8895 H   0  0  0  0  0  0  0  0  0  0  0  0
   -0.4094   -1.4450    6.3348 H   0  0  0  0  0  0  0  0  0  0  0  0
    1.1789   -2.8520    5.7726 C   0  0  0  0  0  0  0  0  0  0  0  0
    1.5177   -3.0017    6.8072 H   0  0  0  0  0  0  0  0  0  0  0  0
    0.4871   -3.6781    5.5670 H   0  0  0  0  0  0  0  0  0  0  0  0
    2.3632   -2.9208    4.7891 C   0  0  0  0  0  0  0  0  0  0  0  0
    3.1008   -2.1536    5.0556 H   0  0  0  0  0  0  0  0  0  0  0  0
    2.8916   -3.8801    4.8819 H   0  0  0  0  0  0  0  0  0  0  0  0
[...]
  4 62  1  0  0  0  0
M  END
$$$$
 
 Bond Distances (Angstroems)
 ---------------------------
H1-C2=1.0686         C2-H1=1.0686         C2-H3=1.0688         C2-Ru4=1.9106        H3-C2=1.0688         Ru4-C2=1.9106        
Ru4-Cl5=2.2920       Ru4-Cl6=2.3283       Ru4-P7=2.3212        Cl5-Ru4=2.2920       Cl6-Ru4=2.3283       P7-Ru4=2.3212        
P7-C8=1.8579         P7-C25=1.8541        P7-C42=1.8590        C8-P7=1.8579         C8-H9=1.0970         C8-C10=1.5363        
C8-C22=1.5369        H9-C8=1.0970         C10-C8=1.5363        C10-H11=1.0976       C10-H12=1.0956       C10-C13=1.5419       
H11-C10=1.0976       H12-C10=1.0956       C13-C10=1.5419       C13-H14=1.0970       C13-H15=1.0989       C13-C16=1.5408       
H14-C13=1.0970       H15-C13=1.0989       C16-C13=1.5408       C16-H17=1.0972       C16-H18=1.0991       C16-C19=1.5408       
H17-C16=1.0972       H18-C16=1.0991       C19-C16=1.5408       C19-H20=1.0989       C19-H21=1.0970       C19-C22=1.5417       
H20-C19=1.0989       H21-C19=1.0970       C22-C8=1.5369        C22-C19=1.5417       C22-H23=1.0958       C22-H24=1.0972       
H23-C22=1.0958       H24-C22=1.0972       C25-P7=1.8541        C25-H26=1.0966       C25-C27=1.5340       C25-C39=1.5352       
H26-C25=1.0966       C27-C25=1.5340       C27-H28=1.0961       C27-H29=1.0984       C27-C30=1.5416       H28-C27=1.0961       
H29-C27=1.0984       C30-C27=1.5416       C30-H31=1.0989       C30-H32=1.0970       C30-C33=1.5410       H31-C30=1.0989       
H32-C30=1.0970       C33-C30=1.5410       C33-H34=1.0972       C33-H35=1.0991       C33-C36=1.5412       H34-C33=1.0972       
H35-C33=1.0991       C36-C33=1.5412       C36-H37=1.0970       C36-H38=1.0989       C36-C39=1.5429       H37-C36=1.0970       
H38-C36=1.0989       C39-C25=1.5352       C39-C36=1.5429       C39-H40=1.0961       C39-H41=1.0978       H40-C39=1.0961       
H41-C39=1.0978       C42-P7=1.8590        C42-H43=1.0966       C42-C44=1.5366       C42-C56=1.5380       H43-C42=1.0966       
C44-C42=1.5366       C44-H45=1.0969       C44-H46=1.0954       C44-C47=1.5405       H45-C44=1.0969       H46-C44=1.0954       
C47-C44=1.5405       C47-H48=1.0990       C47-H49=1.0969       C47-C50=1.5392       H48-C47=1.0990       H49-C47=1.0969       
C50-C47=1.5392       C50-H51=1.0969       C50-H52=1.0991       C50-C53=1.5400       H51-C50=1.0969       H52-C50=1.0991       
C53-C50=1.5400       C53-H54=1.0970       C53-H55=1.0990       C53-C56=1.5430       H54-C53=1.0970       H55-C53=1.0990       
C56-C42=1.5380       C56-C53=1.5430       C56-H57=1.0967       C56-H58=1.0981       H57-C56=1.0967       H58-C56=1.0981       
C59-H60=1.0686       C59-H61=1.0684       C59-Ru62=1.9091      H60-C59=1.0686       H61-C59=1.0684       Ru62-C59=1.9091      
Ru62-Cl63=2.3188     Ru62-Cl64=2.3012     Ru62-P65=2.3106      Cl63-Ru62=2.3188     Cl64-Ru62=2.3012     P65-Ru62=2.3106      
P65-C66=1.8731       P65-C83=1.8590       P65-C100=1.8598      C66-P65=1.8731       C66-H67=1.0969       C66-C68=1.5390       
C66-C80=1.5393       H67-C66=1.0969       C68-C66=1.5390       C68-H69=1.0974       C68-H70=1.0958       C68-C71=1.5427       
H69-C68=1.0974       H70-C68=1.0958       C71-C68=1.5427       C71-H72=1.0970       C71-H73=1.0990       C71-C74=1.5394       
H72-C71=1.0970       H73-C71=1.0990       C74-C71=1.5394       C74-H75=1.0972       C74-H76=1.0991       C74-C77=1.5394       
H75-C74=1.0972       H76-C74=1.0991       C77-C74=1.5394       C77-H78=1.0990       C77-H79=1.0969       C77-C80=1.5401       
H78-C77=1.0990       H79-C77=1.0969       C80-C66=1.5393       C80-C77=1.5401       C80-H81=1.0964       C80-H82=1.0972       
H81-C80=1.0964       H82-C80=1.0972       C83-P65=1.8590       C83-H84=1.0968       C83-C85=1.5351       C83-C97=1.5348       
H84-C83=1.0968       C85-C83=1.5351       C85-H86=1.0946       C85-H87=1.0971       C85-C88=1.5431       H86-C85=1.0946       
H87-C85=1.0971       C88-C85=1.5431       C88-H89=1.0990       C88-H90=1.0970       C88-C91=1.5414       H89-C88=1.0990       
H90-C88=1.0970       C91-C88=1.5414       C91-H92=1.0972       C91-H93=1.0991       C91-C94=1.5411       H92-C91=1.0972       
H93-C91=1.0991       C94-C91=1.5411       C94-H95=1.0969       C94-H96=1.0989       C94-C97=1.5414       H95-C94=1.0969       
H96-C94=1.0989       C97-C83=1.5348       C97-C94=1.5414       C97-H98=1.0967       C97-H99=1.0987       H98-C97=1.0967       
H99-C97=1.0987       C100-P65=1.8598      C100-H101=1.0963     C100-C102=1.5368     C100-C114=1.5350     H101-C100=1.0963     
C102-C100=1.5368     C102-H103=1.0978     C102-H104=1.0952     C102-C105=1.5418     H103-C102=1.0978     H104-C102=1.0952     
C105-C102=1.5418     C105-H106=1.0990     C105-H107=1.0970     C105-C108=1.5399     H106-C105=1.0990     H107-C105=1.0970     
C108-C105=1.5399     C108-H109=1.0972     C108-H110=1.0991     C108-C111=1.5399     H109-C108=1.0972     H110-C108=1.0991     
C111-C108=1.5399     C111-H112=1.0970     C111-H113=1.0989     C111-C114=1.5418     H112-C111=1.0970     H113-C111=1.0989     
C114-C100=1.5350     C114-C111=1.5418     C114-H115=1.0966     C114-H116=1.0968     H115-C114=1.0966     H116-C114=1.0968     
 C  H  Rav=1.0958 sigma=0.0068  Rmin=1.0684  Rmax=1.0991    70
 C  C  Rav=1.5395 sigma=0.0026  Rmin=1.5340  Rmax=1.5431    36
 P  C  Rav=1.8605 sigma=0.0059  Rmin=1.8541  Rmax=1.8731     6
 Ru C  Rav=1.9099 sigma=0.0008  Rmin=1.9091  Rmax=1.9106     2
 Ru P  Rav=2.3159 sigma=0.0053  Rmin=2.3106  Rmax=2.3212     2
 Ru Cl Rav=2.3101 sigma=0.0143  Rmin=2.2920  Rmax=2.3283     4
 
 selected bond angles (degree)
 --------------------
H3-C2-H1=110.16                Ru4-C2-H1=123.38               Ru4-C2-H3=126.44               Cl5-Ru4-C2=106.98              
Cl6-Ru4-C2=100.28              Cl6-Ru4-Cl5=149.16             P7-Ru4-C2=101.78               P7-Ru4-Cl5= 91.23              
P7-Ru4-Cl6= 97.15              C8-P7-Ru4=114.52               C25-P7-Ru4=106.50              C25-P7-C8=109.63               
C42-P7-Ru4=105.53              C42-P7-C8=111.56               C42-P7-C25=108.81              H9-C8-P7=105.02                
C10-C8-P7=112.43               C10-C8-H9=108.23               C22-C8-P7=111.78               C22-C8-H9=108.65               
C22-C8-C10=110.47              H11-C10-C8=110.52              H12-C10-C8=109.12              H12-C10-H11=105.21             
C13-C10-C8=111.31              C13-C10-H11=110.87             C13-C10-H12=109.61             
 
 selected dihedral angles (degree)
 ---------------------------------
Cl5-Ru4-C2-H1= 89.86          Cl5-Ru4-C2-H3=271.50          Cl6-Ru4-C2-H1=284.44          Cl6-Ru4-C2-H3=106.08          
P7-Ru4-C2-H1=184.83           P7-Ru4-C2-H3=  6.47           C8-P7-Ru4-C2= 44.47           C8-P7-Ru4-Cl5=152.11          
C8-P7-Ru4-Cl6=302.36          C25-P7-Ru4-C2=283.12          C25-P7-Ru4-Cl5= 30.75         C25-P7-Ru4-Cl6=181.01         
C42-P7-Ru4-C2=167.56          C42-P7-Ru4-Cl5=275.19         C42-P7-Ru4-Cl6= 65.45         H9-C8-P7-Ru4=270.30           
H9-C8-P7-C25= 29.92           H9-C8-P7-C42=150.52           C10-C8-P7-Ru4= 27.76          C10-C8-P7-C25=147.37          
C10-C8-P7-C42=267.98          C22-C8-P7-Ru4=152.67          C22-C8-P7-C25=272.29          C22-C8-P7-C42= 32.89          
H11-C10-C8-P7=305.74          H11-C10-C8-H9= 61.28          H11-C10-C8-C22=180.11         H12-C10-C8-P7= 60.97          
H12-C10-C8-H9=176.51          H12-C10-C8-C22=295.34         C13-C10-C8-P7=182.08          C13-C10-C8-H9=297.61          
C13-C10-C8-C22= 56.44         
 
 CMA Distance (Angstroems)
 ---------------------------
R(CMA):  8.5708
           -------------------------------------------------
          |                Final Singlepoint                |
           -------------------------------------------------
         :::::::::::::::::::::::::::::::::::::::::::::::::::::
         ::                     SUMMARY                     ::
         :::::::::::::::::::::::::::::::::::::::::::::::::::::
         :: total energy             -16.810050984435 Eh    ::
         :: gradient norm              0.000578464523 Eh/a0 ::
         ::.................................................::
         :: bond energy              -17.652448949300 Eh    ::
         :: angle energy               0.065790783554 Eh    ::
         :: torsion energy             0.061277024654 Eh    ::
         :: repulsion energy           1.020346396790 Eh    ::
         :: electrostat energy        -0.144447712332 Eh    ::
         :: dispersion energy         -0.144677851252 Eh    ::
         :: HB energy                  0.000000000000 Eh    ::
         :: XB energy                  0.000000000000 Eh    ::
         :: bonded atm energy         -0.017700943780 Eh    ::
         :: external energy            0.000000000000 Eh    ::
         :: add. restraining           0.001810267232 Eh    ::
         :: total charge               0.000000000000 e     ::
         :::::::::::::::::::::::::::::::::::::::::::::::::::::

           -------------------------------------------------
          |                Property Printout                |
           -------------------------------------------------

molecular dipole:
                 x           y           z       tot (Debye)
 q only:       -0.276      -0.223       0.370       1.304
           -------------------------------------------------
          |                Geometry Summary                 |
           -------------------------------------------------

      molecular mass/u    :      932.8529713
   center of mass at/Å    :       -4.7578108       1.3127320       1.2827703
  moments of inertia/u·Å² :        0.6135250E+04   0.2308439E+05   0.2402425E+05
rotational constants/cm⁻¹ :        0.2747668E-02   0.7302610E-03   0.7016924E-03

 * 109 selected distances

     #   Z          #   Z                                           value/Å
     1   1 H        2   6 C                                       1.0685732
     2   6 C        3   1 H                                       1.0687860
     2   6 C        4  44 Ru                                      1.9106422
     4  44 Ru       5  17 Cl                                      2.2920077
     4  44 Ru       6  17 Cl                                      2.3283041 (max)
     4  44 Ru       7  15 P                                       2.3211797
     7  15 P        8   6 C                                       1.8578550
     8   6 C        9   1 H                                       1.0969710
     8   6 C       10   6 C                                       1.5362772
    10   6 C       11   1 H                                       1.0975554
    10   6 C       12   1 H                                       1.0956319
    10   6 C       13   6 C                                       1.5418934
    13   6 C       14   1 H                                       1.0970037
    13   6 C       15   1 H                                       1.0989230
    16   6 C       17   1 H                                       1.0971742
    16   6 C       18   1 H                                       1.0991273
    19   6 C       20   1 H                                       1.0989364
    19   6 C       21   1 H                                       1.0969702
     8   6 C       22   6 C                                       1.5368635
    19   6 C       22   6 C                                       1.5417376
    22   6 C       23   1 H                                       1.0957545
    22   6 C       24   1 H                                       1.0972281
     7  15 P       25   6 C                                       1.8540964
    25   6 C       26   1 H                                       1.0966499
    25   6 C       27   6 C                                       1.5339825
    27   6 C       28   1 H                                       1.0961377
    27   6 C       29   1 H                                       1.0984382
    27   6 C       30   6 C                                       1.5415573
    30   6 C       31   1 H                                       1.0989077
    30   6 C       32   1 H                                       1.0969604
    33   6 C       34   1 H                                       1.0971711
    33   6 C       35   1 H                                       1.0991143
    36   6 C       37   1 H                                       1.0969939
    36   6 C       38   1 H                                       1.0989046
    25   6 C       39   6 C                                       1.5352348
    36   6 C       39   6 C                                       1.5428599
    39   6 C       40   1 H                                       1.0961371
    39   6 C       41   1 H                                       1.0977536
     7  15 P       42   6 C                                       1.8589606
    42   6 C       43   1 H                                       1.0965904
    42   6 C       44   6 C                                       1.5365876
    44   6 C       45   1 H                                       1.0969296
    44   6 C       46   1 H                                       1.0953785
    44   6 C       47   6 C                                       1.5405330
    47   6 C       48   1 H                                       1.0990005
    47   6 C       49   1 H                                       1.0969458
    47   6 C       50   6 C                                       1.5392193
    50   6 C       51   1 H                                       1.0969479
    50   6 C       52   1 H                                       1.0991154
    53   6 C       54   1 H                                       1.0969734
    53   6 C       55   1 H                                       1.0989702
    42   6 C       56   6 C                                       1.5379984
    53   6 C       56   6 C                                       1.5429703
    56   6 C       57   1 H                                       1.0967168
    56   6 C       58   1 H                                       1.0980880
    59   6 C       60   1 H                                       1.0685950
    59   6 C       61   1 H                                       1.0683721 (min)
    59   6 C       62  44 Ru                                      1.9091114
    62  44 Ru      63  17 Cl                                      2.3188280
    62  44 Ru      64  17 Cl                                      2.3012108
    62  44 Ru      65  15 P                                       2.3106008
    65  15 P       66   6 C                                       1.8731113
    66   6 C       67   1 H                                       1.0969171
    66   6 C       68   6 C                                       1.5390118
    68   6 C       69   1 H                                       1.0974183
    68   6 C       70   1 H                                       1.0958334
    71   6 C       72   1 H                                       1.0970216
    71   6 C       73   1 H                                       1.0990099
    71   6 C       74   6 C                                       1.5394441
    74   6 C       75   1 H                                       1.0972146
    74   6 C       76   1 H                                       1.0991165
    74   6 C       77   6 C                                       1.5394435
    77   6 C       78   1 H                                       1.0990164
    77   6 C       79   1 H                                       1.0969045
    66   6 C       80   6 C                                       1.5392691
    77   6 C       80   6 C                                       1.5400906
    80   6 C       81   1 H                                       1.0964163
    80   6 C       82   1 H                                       1.0971998
    65  15 P       83   6 C                                       1.8590022
    83   6 C       84   1 H                                       1.0967917
    83   6 C       85   6 C                                       1.5350971
    85   6 C       86   1 H                                       1.0945928
    85   6 C       87   1 H                                       1.0971298
    88   6 C       89   1 H                                       1.0989684
    88   6 C       90   1 H                                       1.0969835
    91   6 C       92   1 H                                       1.0971979
    91   6 C       93   1 H                                       1.0991063
    94   6 C       95   1 H                                       1.0969230
    94   6 C       96   1 H                                       1.0988841
    83   6 C       97   6 C                                       1.5347882
    94   6 C       97   6 C                                       1.5414059
    97   6 C       98   1 H                                       1.0966709
    97   6 C       99   1 H                                       1.0987031
    65  15 P      100   6 C                                       1.8598016
   100   6 C      101   1 H                                       1.0963271
   100   6 C      102   6 C                                       1.5368355
   102   6 C      103   1 H                                       1.0977730
   102   6 C      104   1 H                                       1.0952213
   102   6 C      105   6 C                                       1.5418457
   105   6 C      106   1 H                                       1.0989785
   105   6 C      107   1 H                                       1.0969967
   108   6 C      109   1 H                                       1.0972338
   108   6 C      110   1 H                                       1.0991040
   111   6 C      112   1 H                                       1.0970056
   111   6 C      113   1 H                                       1.0989417
   100   6 C      114   6 C                                       1.5350221
   111   6 C      114   6 C                                       1.5417965
   114   6 C      115   1 H                                       1.0966396
   114   6 C      116   1 H                                       1.0968021

 * 6 distinct bonds (by element types)

   Z      Z             #   av. dist./Å        max./Å        min./Å
   1 H    6 C          70     1.0957924     1.0991273     1.0683721
   6 C    6 C          25     1.5388706     1.5429703     1.5339825
   6 C   15 P           6     1.8604712     1.8731113     1.8540964
   6 C   44 Ru          2     1.9098768     1.9106422     1.9091114
  15 P   44 Ru          2     2.3158902     2.3211797     2.3106008
  17 Cl  44 Ru          4     2.3100876     2.3283041     2.2920077


optimized geometry written to: xtbopt.sdf


           -------------------------------------------------
          | TOTAL ENERGY              -16.810050984435 Eh   |
          | GRADIENT NORM               0.000578464523 Eh/α |
           -------------------------------------------------
########################################################################
[WARNING] Runtime exception occurred
-1- gfnff_setup: Could not read topology file.
########################################################################

------------------------------------------------------------------------
 * finished run on 2026/02/05 at 16:53:47.572     
------------------------------------------------------------------------
 total:
 * wall-time:     0 d,  0 h,  0 min,  0.481 sec
 *  cpu-time:     0 d,  0 h,  0 min,  6.860 sec
 * ratio c/w:    14.273 speedup
 SCF:
 * wall-time:     0 d,  0 h,  0 min,  0.009 sec
 *  cpu-time:     0 d,  0 h,  0 min,  0.074 sec
 * ratio c/w:     7.911 speedup
 ANC optimizer:
 * wall-time:     0 d,  0 h,  0 min,  0.385 sec
 *  cpu-time:     0 d,  0 h,  0 min,  6.239 sec
 * ratio c/w:    16.185 speedup

normal termination of xtb
6.66user 0.20system 0:00.48elapsed 1410%CPU (0avgtext+0avgdata 68488maxresident)k
0inputs+11904outputs (23major+9628minor)pagefaults 0swaps
