116
 energy: -16.639678437156 gnorm: 1.423714273010 xtb: 6.7.1 (edcfbbe)
H           -0.18630000000000        0.92130000000000       -0.14040000000000
C           -0.20820000000000        0.74860000000000        0.91380000000000
H            0.77240000000000        0.85620000000000        1.32500000000000
Ru          -1.78990000000000        0.27550000000000        1.86970000000000
Cl          -1.90880000000000       -2.01260000000000        1.86630000000000
Cl          -2.86790000000000        2.33800000000000        1.93850000000000
P           -1.02070000000000        0.27460000000000        4.06080000000000
C            0.10420000000000        1.68920000000000        4.48530000000000
H            1.10980000000000        1.34040000000000        4.21990000000000
C           -0.20080000000000        2.94910000000000        3.66030000000000
H           -0.18430000000000        2.72000000000000        2.58710000000000
H           -1.22550000000000        3.27630000000000        3.86760000000000
C            0.78420000000000        4.08760000000000        3.99420000000000
H            1.79560000000000        3.79320000000000        3.68760000000000
H            0.55040000000000        4.98740000000000        3.40830000000000
C            0.77850000000000        4.40030000000000        5.50300000000000
H           -0.20330000000000        4.79960000000000        5.78650000000000
H            1.49810000000000        5.19710000000000        5.73870000000000
C            1.07300000000000        3.13550000000000        6.33220000000000
H            1.05400000000000        3.35860000000000        7.40810000000000
H            2.09340000000000        2.79210000000000        6.12180000000000
C            0.07660000000000        2.01060000000000        5.98780000000000
H           -0.93430000000000        2.32760000000000        6.26690000000000
H            0.27080000000000        1.11170000000000        6.58590000000000
C           -0.12740000000000       -1.33220000000000        4.30310000000000
H           -0.86140000000000       -2.10490000000000        4.04410000000000
C            0.30210000000000       -1.54190000000000        5.76050000000000
H            1.03580000000000       -0.77180000000000        6.02460000000000
H           -0.54690000000000       -1.39680000000000        6.44190000000000
C            0.94380000000000       -2.93090000000000        5.94750000000000
H            1.24100000000000       -3.08730000000000        6.99390000000000
H            0.19720000000000       -3.70620000000000        5.73520000000000
C            2.14660000000000       -3.10670000000000        4.99990000000000
H            2.93500000000000       -2.39690000000000        5.27940000000000
H            2.59400000000000       -4.10340000000000        5.12040000000000
C            1.73960000000000       -2.86450000000000        3.53280000000000
H            1.03740000000000       -3.64580000000000        3.21670000000000
H            2.60740000000000       -2.96330000000000        2.86600000000000
C            1.07340000000000       -1.48360000000000        3.35960000000000
H            1.80180000000000       -0.69260000000000        3.57270000000000
H            0.76110000000000       -1.32890000000000        2.31860000000000
C           -2.55000000000000        0.26750000000000        5.11830000000000
H           -2.19360000000000        0.22110000000000        6.15430000000000
C           -3.38880000000000        1.54200000000000        4.93480000000000
H           -2.79400000000000        2.43900000000000        5.14550000000000
H           -3.67540000000000        1.62040000000000        3.88110000000000
C           -4.66660000000000        1.51270000000000        5.79470000000000
H           -5.25110000000000        2.43340000000000        5.65850000000000
H           -4.38950000000000        1.49310000000000        6.85590000000000
C           -5.51190000000000        0.26990000000000        5.46320000000000
H           -5.84670000000000        0.32880000000000        4.42000000000000
H           -6.43040000000000        0.24670000000000        6.06640000000000
C           -4.68860000000000       -1.01620000000000        5.66150000000000
H           -4.42880000000000       -1.12120000000000        6.72200000000000
H           -5.28860000000000       -1.90370000000000        5.41640000000000
C           -3.39500000000000       -0.98340000000000        4.82120000000000
H           -3.65020000000000       -0.99380000000000        3.75460000000000
H           -2.80370000000000       -1.89340000000000        4.98850000000000
C           -6.24100000000000        4.22390000000000       -2.18740000000000
H           -5.32520000000000        4.77320000000000       -2.22410000000000
H           -6.80830000000000        4.40340000000000       -3.07470000000000
Ru          -6.72790000000000        3.16500000000000       -0.67890000000000
Cl          -5.54660000000000        1.18060000000000       -0.88440000000000
Cl          -7.77530000000000        4.73110000000000        0.64150000000000
P           -8.63780000000000        2.03810000000000       -1.33080000000000
C           -8.92660000000000        0.79870000000000        0.04580000000000
H          -10.01200000000000        0.64170000000000        0.06430000000000
C           -8.25170000000000       -0.55850000000000       -0.22450000000000
H           -8.59900000000000       -0.97940000000000       -1.17660000000000
H           -7.17440000000000       -0.40070000000000       -0.34530000000000
C           -8.49910000000000       -1.56210000000000        0.92090000000000
H           -9.56810000000000       -1.80430000000000        0.96570000000000
H           -7.99070000000000       -2.51510000000000        0.71790000000000
C           -8.05010000000000       -0.98370000000000        2.27540000000000
H           -6.96360000000000       -0.83050000000000        2.26060000000000
H           -8.23570000000000       -1.69790000000000        3.08990000000000
C           -8.75040000000000        0.35920000000000        2.55000000000000
H           -8.43930000000000        0.77570000000000        3.51820000000000
H           -9.83200000000000        0.19610000000000        2.63250000000000
C           -8.47140000000000        1.35360000000000        1.40780000000000
H           -7.39210000000000        1.54160000000000        1.36610000000000
H           -8.92930000000000        2.33010000000000        1.60880000000000
C           -8.38000000000000        1.08520000000000       -2.90610000000000
H           -7.69440000000000        0.27440000000000       -2.63100000000000
C           -7.71250000000000        1.87590000000000       -4.03980000000000
H           -8.34150000000000        2.73170000000000       -4.30470000000000
H           -6.75700000000000        2.29130000000000       -3.69660000000000
C           -7.49700000000000        0.98910000000000       -5.28440000000000
H           -7.03900000000000        1.56850000000000       -6.09820000000000
H           -6.77390000000000        0.19960000000000       -5.04530000000000
C           -8.81850000000000        0.34660000000000       -5.74960000000000
H           -9.50060000000000        1.13240000000000       -6.09760000000000
H           -8.65160000000000       -0.30290000000000       -6.62040000000000
C           -9.48720000000000       -0.43690000000000       -4.60360000000000
H           -8.84660000000000       -1.27980000000000       -4.31650000000000
H          -10.43480000000000       -0.88540000000000       -4.93310000000000
C           -9.70630000000000        0.47590000000000       -3.38140000000000
H          -10.38600000000000        1.28900000000000       -3.66340000000000
H          -10.20820000000000       -0.05610000000000       -2.56160000000000
C          -10.11560000000000        3.15930000000000       -1.47130000000000
H          -10.85510000000000        2.59720000000000       -2.05350000000000
C          -10.73420000000000        3.48480000000000       -0.10280000000000
H          -10.99560000000000        2.56360000000000        0.43400000000000
H           -9.98150000000000        3.98670000000000        0.51440000000000
C          -11.96700000000000        4.39960000000000       -0.24510000000000
H          -12.39680000000000        4.63040000000000        0.73970000000000
H          -12.75430000000000        3.86520000000000       -0.79100000000000
C          -11.60670000000000        5.69130000000000       -1.00210000000000
H          -10.88700000000000        6.26930000000000       -0.40900000000000
H          -12.48720000000000        6.34020000000000       -1.11050000000000
C          -10.99000000000000        5.36840000000000       -2.37590000000000
H          -11.73980000000000        4.87020000000000       -3.00290000000000
H          -10.72390000000000        6.29010000000000       -2.91170000000000
C           -9.76140000000000        4.44910000000000       -2.22430000000000
H           -8.97800000000000        4.97690000000000       -1.66750000000000
H           -9.32370000000000        4.21770000000000       -3.20300000000000
116
 energy: -16.749413019900 gnorm: 1.048556254781 xtb: 6.7.1 (edcfbbe)
H           -0.20022926565177        0.93905850396576       -0.15845681312706
C           -0.28131739995675        0.79465325960104        0.87363891614834
H            0.74159697575416        0.86514709835527        1.31446283448483
Ru          -1.83536827412848        0.30128499562386        1.84900594645289
Cl          -1.92773545399819       -2.00714470102869        1.85897579680150
Cl          -2.89254339794842        2.34488679685564        1.93958999577089
P           -1.02687921817256        0.28191415478597        4.05014836106583
C            0.10313571058923        1.68935191298034        4.48420032028477
H            1.10921625113541        1.34016993131801        4.21956659319684
C           -0.20061684350000        2.94946655959916        3.66023322131852
H           -0.18428899058549        2.72016663764910        2.58708334939476
H           -1.22545597248263        3.27640449729834        3.86755117545753
C            0.78428624665342        4.08768700045063        3.99422105955740
H            1.79560525020766        3.79320637304478        3.68760534455143
H            0.55043832393611        4.98744092172085        3.40829730945495
C            0.77851370262635        4.40031370230576        5.50301068614031
H           -0.20330550225915        4.79957889260887        5.78650072974453
H            1.49809332013655        5.19707854160636        5.73872102666612
C            1.07295203840981        3.13536881108319        6.33211902216658
H            1.05397595105675        3.35853812858810        7.40805302328445
H            2.09339202949825        2.79206668503972        6.12177023008653
C            0.07630622570699        2.01034959563855        5.98748254200444
H           -0.93438856172806        2.32758837966147        6.26694135402833
H            0.27071606987301        1.11161565511017        6.58577217585049
C           -0.12964668109949       -1.32869055649017        4.30150446158179
H           -0.86140573325562       -2.10436543569781        4.04389649946516
C            0.30155561006829       -1.54110364375918        5.75984255597616
H            1.03570538472377       -0.77166901917854        6.02454035782790
H           -0.54695682511864       -1.39667048903309        6.44189750775280
C            0.94361819056647       -2.93066311706144        5.94726904027692
H            1.24092667395407       -3.08714352815330        6.99375402065585
H            0.19719283031102       -3.70614067843385        5.73515589305265
C            2.14655313936171       -3.10669009089498        4.99989478594193
H            2.93499684282994       -2.39687370899014        5.27938806888038
H            2.59395314006118       -4.10340014416605        5.12039265927488
C            1.73944056371827       -2.86440481311211        3.53288596920378
H            1.03737346745454       -3.64578904685300        3.21672472289109
H            2.60732238047123       -2.96324673967898        2.86604383702571
C            1.07294818360082       -1.48332085886598        3.35961867625921
H            1.80171815681296       -0.69258952941947        3.57260395445260
H            0.76125624968971       -1.32891489509523        2.31845195901087
C           -2.55022658969540        0.26804352584668        5.11710734042660
H           -2.19268113552583        0.22121766678636        6.15332564812060
C           -3.38914672410541        1.54205735164586        4.93486029111583
H           -2.79409195156980        2.43898447884114        5.14552357452023
H           -3.67551409433966        1.62050799598945        3.88112540719378
C           -4.66666023429355        1.51270422785504        5.79479250878669
H           -5.25112868524054        2.43339551424721        5.65855776319956
H           -4.38948786295655        1.49309220153791        6.85592801411401
C           -5.51190585252192        0.26989139127709        5.46323512004497
H           -5.84668468288807        0.32879772122334        4.42001173990327
H           -6.43040893739971        0.24669039499588        6.06640484838685
C           -4.68857711774288       -1.01618768721677        5.66152366209558
H           -4.42876924225019       -1.12120401705795        6.72202714248539
H           -5.28858725870539       -1.90369769155516        5.41641899524348
C           -3.39507839033211       -0.98325079767298        4.82106110469440
H           -3.65029960884034       -0.99385786286745        3.75455000339819
H           -2.80368340344639       -1.89330915343223        4.98848079842985
C           -6.16245509720651        4.18082140771688       -2.15222418822233
H           -5.29708450942970        4.76556812616488       -2.22199360782690
H           -6.78539392858017        4.38767228025899       -3.05476177018606
Ru          -6.68558759550378        3.13766646760278       -0.65525507955455
Cl          -5.53688067966063        1.16377032883282       -0.86825308077621
Cl          -7.76142036787429        4.72183455544985        0.65451514219856
P           -8.62523455784469        2.03636091321903       -1.32900573646726
C           -8.92552385084373        0.79854162818655        0.04601293732898
H          -10.01159068628146        0.64239816767075        0.06354958221987
C           -8.25159588979820       -0.55868060857820       -0.22436974988148
H           -8.59899588060729       -0.97936312540395       -1.17656467071939
H           -7.17436317323223       -0.40082757231572       -0.34526219516104
C           -8.49914241522420       -1.56216595238421        0.92092602908233
H           -9.56812423974637       -1.80430380382416        0.96570258616653
H           -7.99073399876777       -2.51513829515726        0.71791588263882
C           -8.05012907792647       -0.98372195862397        2.27540273905898
H           -6.96360229910290       -0.83049628588727        2.26059789140526
H           -8.23569377188444       -1.69791441660937        3.08992303443843
C           -8.75044554651482        0.35918018226237        2.55005578951365
H           -8.43933251234186        0.77569273990938        3.51823922134209
H           -9.83201306403480        0.19609815814498        2.63250507322717
C           -8.47128226449221        1.35344728431310        1.40798356635406
H           -7.39204560470352        1.54158637232338        1.36621636507477
H           -8.92928290946479        2.33003800159630        1.60876831956314
C           -8.37887767106810        1.08508079799392       -2.90570047968138
H           -7.69404060400287        0.27391283900580       -2.63158566093547
C           -7.71231753078231        1.87579045150707       -4.03984478517723
H           -8.34147491597555        2.73163569324764       -4.30462948008926
H           -6.75691115821086        2.29131689397791       -3.69668600118274
C           -7.49702205949321        0.98909973578306       -5.28443078837088
H           -7.03900626612978        1.56851006044235       -6.09821129621906
H           -6.77390303139617        0.19960522047263       -5.04532582225505
C           -8.81852621856249        0.34661034007541       -5.74958975355812
H           -9.50059986971081        1.13242149014824       -6.09760776013547
H           -8.65159780459607       -0.30290533983154       -6.62038869305430
C           -9.48721189324445       -0.43681524133445       -4.60350820273647
H           -8.84661413908744       -1.27976298480526       -4.31649482954050
H          -10.43479498645262       -0.88533208390866       -4.93306130208278
C           -9.70616704062951        0.47615450032186       -3.38101465417850
H          -10.38592145811596        1.28908971539975       -3.66330705468405
H          -10.20819886011918       -0.05606213866367       -2.56149302573686
C          -10.11153322488551        3.15740321744318       -1.47069569204026
H          -10.85342296580891        2.59664581224904       -2.05307299887093
C          -10.73362607941084        3.48452891394691       -0.10304872447018
H          -10.99548048847401        2.56361290277459        0.43403607993594
H           -9.98150912450740        3.98669462408351        0.51454648143483
C          -11.96682193065162        4.39948520581788       -0.24524870377787
H          -12.39670633296984        4.63033726753912        0.73962199057879
H          -12.75424792262298        3.86518134928093       -0.79104395547050
C          -11.60669429197765        5.69129311035867       -1.00209448558638
H          -10.88696228966508        6.26928155521980       -0.40899155342724
H          -12.48719122872758        6.34018596306942       -1.11049237647978
C          -10.98997951134429        5.36819790642055       -2.37580604785972
H          -11.73979379177972        4.87016472706700       -3.00286211188424
H          -10.72386676255594        6.29002728098167       -2.91165131540364
C           -9.76114129437315        4.44875004937652       -2.22407830743698
H           -8.97790298583322        4.97703557359852       -1.66757785229323
H           -9.32359936375174        4.21776869602360       -3.20297805079631
116
 energy: -16.807335986529 gnorm: 0.130360062952 xtb: 6.7.1 (edcfbbe)
H           -0.21756361007513        0.96484291384156       -0.17300394999911
C           -0.26965505673232        0.77430857824942        0.86930956924000
H            0.72218712275011        0.87700933967130        1.30919340863853
Ru          -1.82998083400100        0.28938272403998        1.86117372425185
Cl          -1.94398734849323       -1.99689319960209        1.84729372102777
Cl          -2.91722013110960        2.35123650401515        1.94564701687549
P           -1.03560550710711        0.28644225126713        4.03661597145410
C            0.10095198635787        1.68926767696577        4.48257321686903
H            1.10705463508229        1.33938979123306        4.21833990630044
C           -0.20081217192578        2.95007406830048        3.65977522252574
H           -0.18442077414202        2.72087723742023        2.58668782505748
H           -1.22557776384057        3.27709353611290        3.86714597477577
C            0.78441356730871        4.08782831029859        3.99420456440658
H            1.79566178448867        3.79318303265534        3.68761455656143
H            0.55068269846624        4.98764768010666        3.40834414025406
C            0.77849219024617        4.40023749379900        5.50299413874177
H           -0.20332571435531        4.79950803779017        5.78648317212019
H            1.49810734155681        5.19691814340536        5.73885932272423
C            1.07264475598116        3.13492744799007        6.33169604457940
H            1.05373712093187        3.35809382988600        7.40771305316246
H            2.09319342938779        2.79179099865761        6.12151182695548
C            0.07556365547671        2.00993172244946        5.98654090070410
H           -0.93475431780117        2.32745163072558        6.26692047916468
H            0.27028434135591        1.11129871311164        6.58495679496806
C           -0.13232190060022       -1.32494345164995        4.29939542308413
H           -0.86220556077532       -2.10259528434030        4.04278525504202
C            0.30028187928856       -1.53952828660279        5.75830723492771
H            1.03500148632165       -0.77094920561478        6.02382972312030
H           -0.54743936647910       -1.39588443248857        6.44139593982037
C            0.94287450545552       -2.92960761488844        5.94645927452414
H            1.24036863764383       -3.08615133716125        6.99303613434083
H            0.19690794457616       -3.70562698234689        5.73478902808901
C            2.14614492801446       -3.10628337101984        4.99973392803749
H            2.93480745855923       -2.39668022238946        5.27928067473083
H            2.59344273974917       -4.10315228598420        5.12031130831856
C            1.73869567994875       -2.86377761249420        3.53291831558689
H            1.03704804757474       -3.64554077278010        3.21679016872243
H            2.60678535731002       -2.96283684950308        2.86620781404299
C            1.07179603124390       -1.48233131000477        3.35912580328461
H            1.80116330086029       -0.69222969523367        3.57223700479508
H            0.76132123807594       -1.32836138293670        2.31763728948182
C           -2.55123637874319        0.26873289566064        5.11560538233852
H           -2.19100393518037        0.22163155543489        6.15092561919081
C           -3.38993104457089        1.54245311505657        4.93482220192223
H           -2.79447793482486        2.43911513688923        5.14558637989341
H           -3.67628990081908        1.62111049224517        3.88118542369462
C           -4.66696149403793        1.51277019056395        5.79504501631592
H           -5.25141076035022        2.43343428695179        5.65886902098190
H           -4.38950219781816        1.49307108720532        6.85607753697630
C           -5.51201743468086        0.26988868028472        5.46334304900615
H           -5.84669611804589        0.32881863281833        4.42007797738813
H           -6.43052618903672        0.24662533574446        6.06644716308290
C           -4.68862716922081       -1.01614556352681        5.66156317802113
H           -4.42865162815589       -1.12117818595150        6.72204522584793
H           -5.28859891523881       -1.90369359421344        5.41651468427460
C           -3.39544119770354       -0.98305632233410        4.82071607090120
H           -3.65079896444044       -0.99413461836202        3.75431992754279
H           -2.80366481137616       -1.89289836487801        4.98838325047106
C           -6.17263911807956        4.20279371686106       -2.14974167197330
H           -5.26573688261762        4.74954740985597       -2.22243389300040
H           -6.76868497029036        4.37223447797566       -3.04631976770753
Ru          -6.70036025954382        3.14141962612696       -0.65386986342863
Cl          -5.53167465360364        1.14530990911758       -0.85244202658460
Cl          -7.74208402178110        4.71310274665805        0.66271810999514
P           -8.61153263622944        2.03669495615032       -1.32410120959196
C           -8.92394037241615        0.79792699855094        0.04683351993123
H          -10.01035841538276        0.64369322380318        0.06217574002539
C           -8.25119744858422       -0.55923820405133       -0.22406498572455
H           -8.59894222472124       -0.97937377223880       -1.17640690540298
H           -7.17403235499904       -0.40153399586492       -0.34509197781414
C           -8.49918339962089       -1.56246785039117        0.92110370101601
H           -9.56820880815227       -1.80436958977318        0.96573619334512
H           -7.99084385390583       -2.51542706921969        0.71807437334305
C           -8.05017377279852       -0.98387213285472        2.27553314199803
H           -6.96363987003470       -0.83054083526764        2.26063975239766
H           -8.23564712604459       -1.69804267368950        3.09005787557998
C           -8.75051881182865        0.35899291789884        2.55038280024826
H           -8.43946551340582        0.77555404767723        3.51853124498932
H           -9.83209766063421        0.19603876285350        2.63257964321485
C           -8.47095064522622        1.35312037195073        1.40862720381453
H           -7.39179973737007        1.54137170617790        1.36709499374157
H           -8.92919770860137        2.32977301301270        1.60881447841827
C           -8.37714340780338        1.08483254364351       -2.90466794409260
H           -7.69280763395517        0.27270354245708       -2.63262939590814
C           -7.71183510323060        1.87569868792070       -4.03956281254803
H           -8.34135115804931        2.73141370322531       -4.30417839354996
H           -6.75646322733489        2.29150346602470       -3.69692465143013
C           -7.49698758998376        0.98913606155304       -5.28437258843457
H           -7.03903796298276        1.56855915009149       -6.09819741845338
H           -6.77387460624776        0.19959536365702       -5.04543465873246
C           -8.81854397839200        0.34670958057948       -5.74944321310918
H           -9.50058013685456        1.13251403796427       -6.09756089705629
H           -8.65164431098528       -0.30290298702290       -6.62022442361829
C           -9.48712055439971       -0.43645971382002       -4.60309777709864
H           -8.84663068002207       -1.27959903135694       -4.31640292578193
H          -10.43477091101722       -0.88491309449925       -4.93269209025379
C           -9.70544797950985        0.47662684154061       -3.38016139991183
H          -10.38523641564502        1.28950034924590       -3.66270169773580
H          -10.20792203504407       -0.05578448401113       -2.56104434929319
C          -10.10611986483121        3.15548800346498       -1.46936406689959
H          -10.84832133211251        2.59486161655381       -2.05179565137123
C          -10.73211633718330        3.48395547315279       -0.10318394604210
H          -10.99473017548271        2.56346407941500        0.43413897635651
H           -9.98117079461860        3.98663382780482        0.51521397412135
C          -11.96597662408625        4.39892856551104       -0.24565344587889
H          -12.39612772323957        4.62990086161094        0.73920634698156
H          -12.75367888879904        3.86485317267082       -0.79131354999754
C          -11.60638443469015        5.69101051964468       -1.00208928098917
H          -10.88678799231934        6.26915314908826       -0.40896175058171
H          -12.48702150955865        6.33983611692487       -1.11055555582220
C          -10.98944317938636        5.36737871825258       -2.37547980676909
H          -11.73943847483045        4.86965638531503       -3.00260236869496
H          -10.72361620303497        6.28941406150326       -2.91139621412852
C           -9.75979920257703        4.44800417359148       -2.22353983500227
H           -8.97696601763620        4.97738145735546       -1.66773517248690
H           -9.32280102133162        4.21772491355585       -3.20278051591656
116
 energy: -16.808429836733 gnorm: 0.134732282656 xtb: 6.7.1 (edcfbbe)
H           -0.21721248564490        0.95839828245940       -0.17745591006659
C           -0.26639152014633        0.77164120406913        0.87202506907516
H            0.71148077341746        0.87801276991895        1.30686960019108
Ru          -1.83392540376033        0.28867186084622        1.85409346774725
Cl          -1.94384517361253       -2.00265926453094        1.84458700772071
Cl          -2.92273716395352        2.34138047401825        1.94263457458071
P           -1.03740032096007        0.28670787604974        4.03790611185860
C            0.09805832615494        1.69017294486136        4.47973282498177
H            1.10323385571775        1.33916476621409        4.21468951885915
C           -0.20276151326911        2.95182645487860        3.65760019194216
H           -0.18650099266161        2.72347953762015        2.58426354929740
H           -1.22717099515762        3.27996224819984        3.86524842038031
C            0.78401897819209        4.08819928166950        3.99320282203047
H            1.79505218182276        3.79257943440507        3.68676984099076
H            0.55162471196716        4.98881336455031        3.40802495857629
C            0.77816019836273        4.39951196558450        5.50225043457497
H           -0.20341592729717        4.79916365448895        5.78602554651179
H            1.49829432426241        5.19549585786193        5.73891557896016
C            1.07136496202823        3.13332534764137        6.32982718030867
H            1.05255644544550        3.35563158770290        7.40598446618721
H            2.09170856234299        2.78969113964317        6.11948504916006
C            0.07356945258559        2.00943765368434        5.98385640763215
H           -0.93640485734969        2.32707141783197        6.26522790493739
H            0.26813001259464        1.11010867569285        6.58108539972373
C           -0.13486681014005       -1.32333963405463        4.29577622832285
H           -0.86517819809561       -2.10007573091111        4.03848459177744
C            0.29681547941175       -1.53650259414481        5.75469144913856
H            1.03143527789701       -0.76784059949847        6.01969121468035
H           -0.55094325017359       -1.39228839518958        6.43739771205577
C            0.93927526017028       -2.92609041814369        5.94374762016617
H            1.23664323384768       -3.08178216551594        6.99036329399756
H            0.19354225548779       -3.70238667728587        5.73256912716356