42
 energy: -6.805666891433 gnorm: 0.152804603121 xtb: 6.7.1 (f811460) iter: 1
Ru           0.00000000000000        0.00000000000000        0.00000000000000
Cl           0.00000000000000        0.00000000000000        2.38960000000000
Cl           0.39100000000000        0.00000000000000       -2.31700000000000
C           -2.02220000000000       -0.10870000000000       -0.22260000000000
N           -2.87580000000000       -1.09130000000000       -0.64680000000000
C           -4.18330000000000       -0.56120000000000       -0.59540000000000
H           -5.07620000000000       -1.07960000000000       -0.89690000000000
C           -4.10070000000000        0.71800000000000       -0.12030000000000
H           -4.91450000000000        1.40460000000000        0.03130000000000
N           -2.73950000000000        1.00090000000000        0.11610000000000
C           -2.20600000000000        2.28550000000000        0.56910000000000
H           -1.19050000000000        2.42080000000000        0.20340000000000
H           -2.82360000000000        3.09850000000000        0.19270000000000
H           -2.19380000000000        2.32040000000000        1.65660000000000
C           -2.51330000000000       -2.32980000000000       -1.33140000000000
H           -3.38780000000000       -2.75880000000000       -1.81560000000000
H           -1.76100000000000       -2.13060000000000       -2.09170000000000
H           -2.12760000000000       -3.05180000000000       -0.61500000000000
C            0.26760000000000       -1.77420000000000        0.03680000000000
H            0.29740000000000       -2.33230000000000        0.98840000000000
H            0.47350000000000       -2.35960000000000       -0.87500000000000
C            8.59400000000000        6.92770000000000        3.88250000000000
H            8.50110000000000        7.34170000000000        4.90100000000000
H            8.50430000000000        7.65000000000000        3.05380000000000
Ru           8.76260000000000        5.16650000000000        3.59300000000000
Cl           8.54330000000000        5.51870000000000        1.24360000000000
Cl           8.69220000000000        4.74290000000000        5.90130000000000
C           10.80450000000000        5.13050000000000        3.56140000000000
N           11.76590000000000        6.09730000000000        3.43880000000000
C           13.01910000000000        5.44840000000000        3.47260000000000
H           13.97330000000000        5.93380000000000        3.36740000000000
C           12.79610000000000        4.10990000000000        3.63860000000000
H           13.53810000000000        3.33340000000000        3.69520000000000
N           11.40110000000000        3.91150000000000        3.69650000000000
C           10.73220000000000        2.61500000000000        3.80430000000000
H            9.72240000000000        2.67850000000000        3.40470000000000
H           11.28330000000000        1.86390000000000        3.24190000000000
H           10.67700000000000        2.31050000000000        4.84750000000000
C           11.56490000000000        7.48370000000000        3.02480000000000
H           12.51530000000000        7.93060000000000        2.74100000000000
H           10.89500000000000        7.52520000000000        2.16860000000000
H           11.14520000000000        8.06030000000000        3.84640000000000
42
 energy: -6.809798529801 gnorm: 0.188804942852 xtb: 6.7.1 (f811460) iter: 2
Ru           0.00191121835805        0.00205138227393       -0.00241933851864
Cl           0.00478330278358        0.00628877789675        2.38459907899485
Cl           0.39198368627383        0.00036966017523       -2.31826117353842
C           -2.02224465463017       -0.10533718054619       -0.22301352083192
N           -2.86938801392863       -1.08475369805732       -0.64576806700885
C           -4.16639198878986       -0.55814586746606       -0.59244837398191
H           -5.06057170188413       -1.07763802767892       -0.89315277153719
C           -4.08546006505894        0.71629042658831       -0.12078269150499
H           -4.90162382378150        1.40213940811044        0.03035173111574
N           -2.73622272336763        1.00197528514909        0.11316997443365
C           -2.21273758153636        2.28955539514464        0.57027265362214
H           -1.19900904407628        2.43744025711801        0.20419368263411
H           -2.83681128843087        3.09920914389779        0.19784258890127
H           -2.20047825267362        2.32050841317312        1.65792565572174
C           -2.51156027050823       -2.32668329126261       -1.32745488295036
H           -3.38761152212730       -2.75557238482733       -1.80997284642020
H           -1.75961730350177       -2.13094983233779       -2.08916648289374
H           -2.12489089881022       -3.04790850507309       -0.61062524199801
C            0.27472521701345       -1.78563252554455        0.03659800627365
H            0.30605914823039       -2.32423603156785        0.97002054273007
H            0.47720956186079       -2.35296230766224       -0.85601612516665
C            8.58769788170137        6.93907536173753        3.88157055701311
H            8.49550621844988        7.33846557200443        4.87780665411397
H            8.49758357905955        7.63934253971694        3.06757575666022
Ru           8.76115940101883        5.16389644355141        3.59127720627451
Cl           8.54039564547208        5.51281352784839        1.24442200269892
Cl           8.69085351698122        4.74293921400784        5.89873972913847
C           10.80441407256657        5.12763067723832        3.55881390997990
N           11.75915923026043        6.09127930531507        3.43403345973664
C           13.00196673705556        5.44629964904067        3.47074207036419
H           13.95736734747646        5.93216173949846        3.36549852906324
C           12.78105349884260        4.11323032338949        3.63651178002495
H           13.52532282552952        3.33725573959180        3.69385360406415
N           11.39806919142083        3.91184854809291        3.69398144806495
C           10.73898916467934        2.61022451073090        3.80574500350344
H            9.72990664494888        2.66020855468641        3.40258301826808
H           11.29721964979095        1.86083011643198        3.24844090845434
H           10.68414041946812        2.30992889988137        4.85017003194919
C           11.56248160831102        7.48003019922980        3.02487526706252
H           12.51417264305015        7.92630023687594        2.74308716939551
H           10.89309913288719        7.52575033468110        2.16844937500821
H           11.14198858961488        8.05528000894593        3.84713012108514
42
 energy: -6.810105914667 gnorm: 0.216244866718 xtb: 6.7.1 (f811460) iter: 3
Ru           0.00086808541044       -0.00459516386435       -0.00579430683543
Cl           0.00816373824480        0.01133997715244        2.38037981661503
Cl           0.39272001357837       -0.00036528875303       -2.32052541001971
C           -2.02140078809435       -0.10156798427294       -0.22560903532583
N           -2.86243379513016       -1.08026260475824       -0.64620107651433
C           -4.15035662570670       -0.55658758812606       -0.59085073101293
H           -5.04561604920146       -1.07738382673010       -0.89057502331065
C           -4.07119134336141        0.71494095147367       -0.12196309492839
H           -4.88971898738603        1.39991164819550        0.02904025556518
N           -2.73259946146554        1.00425840315158        0.10963253218701
C           -2.22136759335532        2.29557895258589        0.57250217607453
H           -1.21009352564218        2.45920509787146        0.20547514627207
H           -2.85413426099792        3.10109172302391        0.20581234996644
H           -2.20857504492845        2.32083984036586        1.66034164860940
C           -2.50937796459451       -2.32659286390439       -1.32345359896930
H           -3.38691504475024       -2.75569152387837       -1.80374445953773
H           -1.75768246118985       -2.13497133140603       -2.08661171202543
H           -2.12148527028920       -3.04588292350976       -0.60526394313772
C            0.28292286014589       -1.78440152854741        0.03680825131748
H            0.31045981084461       -2.31345733724431        0.95586601226585
H            0.47808903284127       -2.34404109182678       -0.84294189443353
C            8.58002098032784        6.93846253145234        3.87709242548872
H            8.49293856563943        7.33260268885262        4.85850673369334
H            8.49423367191304        7.62740983898603        3.07507209962238
Ru           8.76278072683558        5.17055735465021        3.59130691901674
Cl           8.53812993584625        5.50852566539740        1.24305938407038
Cl           8.68997313634064        4.74444813542063        5.89608983824010
C           10.80375994930931        5.12479218544769        3.55587925047763
N           11.75210401219798        6.08747014815891        3.42881590590911
C           12.98588413710158        5.44578990710440        3.46868777748394
H           13.94227455571793        5.93234009535500        3.36348645499625
C           12.76700089144893        4.11625381066365        3.63468509755594
H           13.51353010756717        3.34086840084175        3.69307754615068
N           11.39462582284306        3.91109930678620        3.69145898864866
C           10.74757106145022        2.60293907357483        3.80839458389898
H            9.73966522659840        2.63635061221316        3.40008359332584
H           11.31538063405033        1.85550292057409        3.25815580625874
H           10.69257348958047        2.30848727900376        4.85448280917972
C           11.55988414911008        7.47912815617555        3.02579657149310
H           12.51283957679297        7.92486204474566        2.74661362329478
H           10.89109957653301        7.52959567942232        2.16906221293407
H           11.13805446782377        8.05194862817525        3.84906847543896
42
 energy: -6.811530585496 gnorm: 0.098802259012 xtb: 6.7.1 (f811460) iter: 4
Ru           0.00476264388757       -0.00361532949124       -0.00806093565939
Cl           0.00702587251134        0.01067626251744        2.37978695861759
Cl           0.39229168718298       -0.00249447492718       -2.32256622394649
C           -2.02194869148236       -0.10109531588113       -0.22721513022890
N           -2.86089881443398       -1.08177888895667       -0.64839369595697
C           -4.15043898918025       -0.55844996193560       -0.59208582739227
H           -5.04521076681352       -1.08014293525000       -0.89114766308441
C           -4.07208850744041        0.71530620148634       -0.12319437181310
H           -4.89092277112104        1.39980539357148        0.02788687807206
N           -2.73255715156638        1.00681427807656        0.10798362913046
C           -2.22607105531218        2.29949511165428        0.57402028431441
H           -1.21622174331799        2.46966692757331        0.20585645900511
H           -2.86341046465031        3.10324680830403        0.21093383182395
H           -2.21217527842526        2.32143942412094        1.66193333409114
C           -2.50801402097903       -2.32991546037582       -1.32269957945945
H           -3.38560088900378       -2.75985401773905       -1.80180059656983
H           -1.75632904661420       -2.13974911413249       -2.08619928160191
H           -2.11959632929566       -3.04718359413331       -0.60284885973742
C            0.27569983844306       -1.78220980355771        0.03492798050459
H            0.30793569374710       -2.31208137799791        0.95922502745202
H            0.47680185807606       -2.34288524910849       -0.84934802142292
C            8.58678728306949        6.93703426533832        3.87518656030707
H            8.49457189668067        7.33142723276754        4.86165553179346
H            8.49612650295885        7.62780484044668        3.06866342786510
Ru           8.75915496597676        5.17052297891180        3.59012844051576
Cl           8.53894858472126        5.50972231743581        1.24104691027597
Cl           8.69050778266856        4.74694734561504        5.89596246418832
C           10.80431173072667        5.12455485855988        3.55464613815181
N           11.75080684468488        6.08946363479662        3.42725110579326
C           12.98613526706038        5.44782779371420        3.46841811391827
H           13.94202277206228        5.93513298559301        3.36353724486190
C           12.76796048369298        4.11617974942821        3.63485224305016
H           13.51484690294443        3.34125300069743        3.69385086858854
N           11.39452918438379        3.90903183826707        3.69098631295060
C           10.75211569806795        2.59822855531258        3.81051859372753
H            9.74518449189695        2.62519593730313        3.39903616408699
H           11.32492388731927        1.85123995268582        3.26452842591207
H           10.69599323167689        2.30716975711981        4.85752337531304
C           11.55871605318381        7.48208315032176        3.02680303248850
H           12.51174695888274        7.92821207197818        2.74900803285306
H           10.89031481343067        7.53380970892499        2.16981289625041
H           11.13586158969906        8.05296314096434        3.85078992096997
42
 energy: -6.811770662894 gnorm: 0.108041075977 xtb: 6.7.1 (f811460) iter: 5
Ru           0.00128774210301        0.00068902641739       -0.00737226100799
Cl           0.00475326511829        0.01155721390447        2.37844813325130
Cl           0.39233890238857       -0.00332027045179       -2.32503477819906
C           -2.02131610514571       -0.09954343863099       -0.22973645283092
N           -2.85981013627202       -1.08366081082909       -0.65129089422273
C           -4.15190961129730       -0.56093206815975       -0.59427231266732
H           -5.04585774862804       -1.08391534323705       -0.89271195616629
C           -4.07493917630004        0.71524542488361       -0.12535975681606
H           -4.89427458320418        1.39888034073585        0.02573259188362
N           -2.73377145137396        1.00970780234873        0.10565854091867
C           -2.23242995848772        2.30344564490679        0.57578636304654
H           -1.22422046677480        2.48043700147890        0.20629981539581
H           -2.87471163263344        3.10549052255031        0.21718712484625
H           -2.21696141002326        2.32121469662468        1.66378186591054
C           -2.50634854936535       -2.33391716981014       -1.32187769194829
H           -3.38374382758894       -2.76536602819703       -1.79966544054440
H           -1.75459652313069       -2.14561383804820       -2.08571929999841
H           -2.11742773126330       -3.04860347238898       -0.59976616344843
C            0.27284550593517       -1.78116376464040        0.03271447375997
H            0.30258768457825       -2.31258074414118        0.96305949196129
H            0.47300324229028       -2.34264395690074       -0.85649190657240
C            8.58958677247217        6.93688512547141        3.87336044252658
H            8.49873819166651        7.33124690163105        4.86482465479982
H            8.50095263825638        7.62991832749874        3.06111289449846
Ru           8.76207453507625        5.16730488321266        3.58565642685810
Cl           8.54089287657764        5.50957521199998        1.23840943932281
Cl           8.69060360481795        4.74824374940125        5.89490807076005
C           10.80366575546216        5.12344841219403        3.55349346284457
N           11.74997453470034        6.09188240768043        3.42559904501198
C           12.98786615270831        5.45063647068403        3.46883276988572
H           13.94297267107679        5.93919784284086        3.36477441313278
C           12.77095746283276        4.11659772546244        3.63550002604144
H           13.51846207031197        3.34255685740641        3.69540274618406
N           11.39566045398874        3.90663213843667        3.69033532961569
C           10.75818852899728        2.59324232408452        3.81295439473909
H            9.75255217036925        2.61380045652440        3.39775823142214
H           11.33640872134098        1.84647166850342        3.27206131212992
H           10.70023576570021        2.30625281687644        4.86102629303350
C           11.55734651827571        7.48567101248905        3.02852892087019
H           12.51031287848349        7.93285004985412        2.75262132037312
H           10.88954859133831        7.53898613479203        2.17115622097987
H           11.13310167462213        8.05399271454065        3.85351409841851
42
 energy: -6.811820785705 gnorm: 0.124341652097 xtb: 6.7.1 (f811460) iter: 6
Ru           0.00023931979346        0.00317413676434       -0.01269652854630
Cl           0.00344181716339        0.01431189065789        2.37667010746928
Cl           0.39223775576362       -0.00257286411131       -2.32651405574525
C           -2.02210980156306       -0.09758547056786       -0.23159588409009
N           -2.85759498951200       -1.08349929106104       -0.65438391971714
C           -4.14960353610823       -0.56254559253578       -0.59563384534352
H           -5.04303876764457       -1.08715478358804       -0.89306746438339
C           -4.07441150002209        0.71438230766900       -0.12769992852758
H           -4.89479409422466        1.39691708845811        0.02337994986178
N           -2.73457271244129        1.01246667859760        0.10229058662194
C           -2.24064643166853        2.30769171903137        0.57757213393614
H           -1.23454902597473        2.49417600517326        0.20654150725743
H           -2.88925170260955        3.10736442553380        0.22464221748941
H           -2.22331389675029        2.32019439541441        1.66566957791721
C           -2.50474178684008       -2.33688210889664       -1.32005621869983
H           -3.38226156434466       -2.76998325528414       -1.79610481755338
H           -1.75292737811316       -2.15155151102143       -2.08458789339930
H           -2.11518140775682       -3.04867544444269       -0.59538328553964
C            0.27282314946582       -1.77975518380604        0.03244740903474
H            0.29993437185485       -2.30929314515816        0.96234267882901
H            0.47103663545818       -2.34059708145500       -0.85781011977938
C            8.58957484497102        6.93641797835264        3.86906304490723
H            8.50055081045613        7.32998049585470        4.86120935992672
H            8.50345005686152        7.62769231149584        3.05670257745953
Ru           8.76335954598496        5.16536161160534        3.58556697475039
Cl           8.54230105820689        5.50769794843321        1.23521627320346
Cl           8.69055553372091        4.74823069539780        5.89184038652657
C           10.80440479884776        5.12190173211077        3.55085888616646
N           11.74796326519886        6.09255679417568        3.42312524555392
C           12.98573082807424        5.45269864870625        3.46844235438136
H           13.94030746924860        5.94261492084766        3.36504824087391
C           12.77066437477964        4.11813678550650        3.63539862536821
H           13.51930292476625        3.34513700629552        3.69642279827160
N           11.39652960210511        3.90475336242576        3.68899038774011
C           10.76613740716183        2.58790009081366        3.81593896919184
H            9.76204450652700        2.59931271740989        3.39618418604753
H           11.35116277979180        1.84149872115175        3.28154873810826
H           10.70618134820467        2.30619911042530        4.86539902613266
C           11.55584434316890        7.48811045984575        3.03079880941738
H           12.50901345185281        7.93636085367655        2.75736060014215
H           10.88878621765922        7.54426506137050        2.17298999344285
H           11.13002037848650        8.05338977872729        3.85707231529587
42
 energy: -6.812257370139 gnorm: 0.049047612990 xtb: 6.7.1 (f811460) iter: 7
Ru           0.00161743337112        0.00203179621774       -0.01326769697308
Cl           0.00307638419563        0.01753401760289        2.37390343327758
Cl           0.39187368382608       -0.00141436051687       -2.32827049569020
C           -2.02384174707040       -0.09515134964820       -0.23439209803655
N           -2.85544951482143       -1.08219946972838       -0.65633858916789
C           -4.14577692344345       -0.56291539777289       -0.59674240972266
H           -5.03893638325707       -1.08880310203201       -0.89357713762431
C           -4.07216221583574        0.71338645256574       -0.12992931511600
H           -4.89362218623708        1.39494578343420        0.02119785605987
N           -2.73502733869846        1.01429742062053        0.09927781732487
C           -2.24782081601907        2.31071049701403        0.57903900621342
H           -1.24362322112836        2.50559821848084        0.20669502823569
H           -2.90183827790750        3.10826207875146        0.23107924196749
H           -2.22881690431623        2.31863510242514        1.66719523160434
C           -2.50367922712100       -2.33845907339377       -1.31765173281920
H           -3.38145127738462       -2.77293995564610       -1.79214073607669
H           -1.75177927474969       -2.15615082198903       -2.08289149360403
H           -2.11368832557951       -3.04781457125478       -0.59074612783113
C            0.27288514719940       -1.77829715772158        0.03137537351470
H            0.30060750706001       -2.30518202071699        0.95862467993498
H            0.47110985271911       -2.33689084403792       -0.85587291185969
C            8.58950425023998        6.93549231353994        3.86608916518966
H            8.50000206371294        7.32735258776007        4.85471932079542
H            8.50296186796637        7.62389563536931        3.05580231460265
Ru           8.76215757421253        5.16688525915420        3.58228799861894
Cl           8.54305775802738        5.50504731513314        1.23345392751944
Cl           8.69070329516216        4.74754485825635        5.88944511521271
C           10.80618422733589        5.12006278069118        3.54903558907018
N           11.74593190756156        6.09187775482502        3.42033342753927
C           12.98206775996722        5.45368798004550        3.46791672843155
H           13.93641245927514        5.94466280331455        3.36521218124519
C           12.76863199802077        4.11996195442080        3.63505152061869
H           13.51835022487442        3.34779590599097        3.69708388650088
N           11.39703289066657        3.90381078529222        3.68736292934739
C           10.77299113526914        2.58405838964625        3.81841180435769
H            9.77031791017724        2.58728423244181        3.39467890065931
H           11.36382415731118        1.83787614257733        3.28992218258405
H           10.71121047607950        2.30720026921796        4.86911709423636
C           11.55488765513475        7.48907143039235        3.03265284341371
H           12.50839457710548        7.93811722452899        2.76150370157294
H           10.88852456858995        7.54819101711546        2.17445320870889
H           11.12779486850838        8.05174011763253        3.86009923616371
42
 energy: -6.812422132282 gnorm: 0.035987885239 xtb: 6.7.1 (f811460) iter: 8
Ru          -0.00071196493133        0.00372466890545       -0.01517059884792
Cl           0.00133069797171        0.01999050879311        2.37178285365091
Cl           0.39143412231021       -0.00082034239334       -2.33062915319052
C           -2.02419326412618       -0.09261966127475       -0.23725738316452
N           -2.85387778216712       -1.08219884272111       -0.65945188699994
C           -4.14533695586779       -0.56458552130110       -0.59893038045821
H           -5.03765490009832       -1.09219802540226       -0.89499074792622
C           -4.07367499166332        0.71254074313098       -0.13276190398924
H           -4.89610542122861        1.39282353156629        0.01847865281731
N           -2.73659376366388        1.01691790281284        0.09585334927942
C           -2.25574619199741        2.31395684770748        0.58075346697100
H           -1.25380410994404        2.51678275556509        0.20663418316129
H           -2.91549791754186        3.10945694877517        0.23869109048021
H           -2.23426945246468        2.31653821196097        1.66892600081403
C           -2.50206403571529       -2.34137833760065       -1.31545350534244
H           -3.37979342103729       -2.77784184582760       -1.78815190227560
H           -1.75006726329377       -2.16227844501964       -2.08134354667615
H           -2.11182170226665       -3.04752617945081       -0.58553921836717
C            0.26921846514304       -1.77697056369412        0.02920639707090
H            0.29791088227221       -2.30302987402776        0.95858293610629
H            0.46908349193036       -2.33472233727056       -0.85905890182799
C            8.59309440464282        6.93487483960501        3.86285341327858
H            8.50192410598496        7.32590922599644        4.85261256801682
H            8.50548898630619        7.62272346022403        3.05054446578182
Ru           8.76433324719647        5.16593773998996        3.57955913181656
Cl           8.54490814603999        5.50340664835826        1.23021211498395
Cl           8.69100298069278        4.74744650003124        5.88685440044181
C           10.80663750308829        5.11821730216850        3.54685776540033
N           11.74466590687600        6.09264147655576        3.41784545902162
C           12.98195003813165        5.45581995017468        3.46762860332148
H           13.93553404146822        5.94833005177430        3.36586161507867
C           12.77040945690720        4.12138130040565        3.63508558856202
H           13.52115143325565        3.35037533164206        3.69832450135658
N           11.39862388855041        3.90201824785870        3.68581977734719
C           10.78042435597497        2.57988229751278        3.82141940021273
H            9.77965952885032        2.57584145049284        3.39318454839437
H           11.37728254345471        1.83355998272443        3.29974043153520
H           10.71584793081157        2.30857371607451        4.87346184548191
C           11.55357124729469        7.49137551835827        3.03531178578150
H           12.50718950213110        7.94179500737063        2.76690414777334
H           10.88811087833746        7.55348416639832        2.17662420115897
H           11.12502535238484        8.05064364304997        3.86432443396930
42
 energy: -6.812578359646 gnorm: 0.023712490451 xtb: 6.7.1 (f811460) iter: 9
Ru          -0.00207383692288        0.00765594996557       -0.01885394584370
Cl          -0.00122501470516        0.02348333464495        2.36858216384155
Cl           0.39077077852741        0.00004374661245       -2.33402731837356
C           -2.02555358153202       -0.08907329304018       -0.24116428674016
N           -2.85176193109803       -1.08195489610938       -0.66416588719080
C           -4.14500605233782       -0.56704050829513       -0.60201450952046
H           -5.03608271464878       -1.09727891153683       -0.89680675698866
C           -4.07622458040954        0.71123701674642       -0.13679724120848
H           -4.90009292736284        1.38961414375397        0.01468598251230
N           -2.73912870887492        1.02064838453954        0.09070615122712
C           -2.26708970798616        2.31825127013048        0.58317112761308
H           -1.26843957148689        2.53213552369697        0.20634538470374
H           -2.93490355037091        3.11096879138910        0.24987577156794
H           -2.24171260771870        2.31292238726158        1.67134142564113
C           -2.49988818887703       -2.34545758720492       -1.31220197509992
H           -3.37753707686690       -2.78488039067182       -1.78224611888396
H           -1.74774718381262       -2.17117658233580       -2.07906836085184
H           -2.10937547307672       -3.04687575398114       -0.57781358558359
C            0.26640097223428       -1.77417691800510        0.02690464576868
H            0.29318622221150       -2.29987573449689        0.95843795288317
H            0.46542576241339       -2.33203477676880       -0.86376272742890
C            8.59575660604959        6.93326750004218        3.85773900729296
H            8.50553652746382        7.32400794850656        4.84957116227847
H            8.50996138607272        7.62122359508878        3.04292151607240
Ru           8.76582084519209        5.16330888287663        3.57471443939981
Cl           8.54766906153572        5.50112372707476        1.22577829562382
Cl           8.69149783786839        4.74737719381202        5.88321815963804
C           10.80801826177004        5.11550060538909        3.54360117066366
N           11.74304533359038        6.09354293449132        3.41413562605827
C           12.98209313756722        5.45882062576933        3.46726269609633
H           13.93456721900860        5.95360613678473        3.36698474738667
C           12.77330407554955        4.12338944113080        3.63516811903535
H           13.52553265261609        3.35407434092390        3.70023281726286
N           11.40117910006533        3.89948629984572        3.68343354477343
C           10.79092623033476        2.57429272854803        3.82567654541161
H            9.79301386738627        2.56035407847813        3.39088289479547
H           11.39615161226081        1.82754723973731        3.31396379951728
H           10.72193351544873        2.31111772308240        4.87962180654472
C           11.55189298061189        7.49456841799758        3.03936571411433