61
 energy: -85.947248296420 gnorm: 0.086483660083 xtb: 6.4.1 (afa7bdf)
Ru        0.00080000000000    1.11200000000000   -0.02170000000000
C         1.35930000000000    2.52860000000000    0.11630000000000
H         1.97000000000000    2.47960000000000   -0.78980000000000
C         0.00280000000000    3.28980000000000   -0.07880000000000
H         0.11640000000000    3.98230000000000   -0.93990000000000
C        -1.35340000000000    2.52130000000000   -0.24660000000000
H        -2.16660000000000    2.89180000000000    0.38040000000000
H        -1.71450000000000    2.48590000000000   -1.27830000000000
H        -0.11680000000000    3.95910000000000    0.80030000000000
H         1.98620000000000    2.92120000000000    0.91900000000000
N         1.11930000000000   -1.70240000000000    0.05690000000000
N        -1.12220000000000   -1.70160000000000    0.04770000000000
C        -0.00120000000000   -0.90970000000000    0.03500000000000
C         0.76610000000000   -3.14370000000000    0.08180000000000
H         1.19390000000000   -3.61050000000000    0.97410000000000
H         1.18530000000000   -3.63930000000000   -0.79870000000000
C        -0.77010000000000   -3.14290000000000    0.08790000000000
H        -1.19840000000000   -3.64950000000000   -0.78220000000000
H        -1.18980000000000   -3.59740000000000    0.99020000000000
C         2.48320000000000   -1.23880000000000    0.07760000000000
C         3.20540000000000   -1.11680000000000   -1.12510000000000
C         4.49960000000000   -0.62590000000000   -1.08970000000000
H         5.05180000000000   -0.53580000000000   -2.00810000000000
C         5.09680000000000   -0.23270000000000    0.10340000000000
C         4.36120000000000   -0.32740000000000    1.28020000000000
H         4.80350000000000   -0.00050000000000    2.20440000000000
C         3.07000000000000   -0.82630000000000    1.29000000000000
C         2.57950000000000   -1.51010000000000   -2.41400000000000
H         1.49230000000000   -1.44920000000000   -2.35250000000000
H         2.84720000000000   -2.53300000000000   -2.68150000000000
H         2.89930000000000   -0.85170000000000   -3.22270000000000
C         6.47470000000000    0.33030000000000    0.11330000000000
H         7.07840000000000   -0.09190000000000   -0.69110000000000
H         6.98110000000000    0.11480000000000    1.05500000000000
H         6.45110000000000    1.41310000000000   -0.01630000000000
C         2.29860000000000   -0.88670000000000    2.55860000000000
H         2.06020000000000    0.11640000000000    2.91460000000000
H         2.86490000000000   -1.39860000000000    3.33770000000000
H         1.35790000000000   -1.42110000000000    2.42290000000000
C        -2.48510000000000   -1.23900000000000   -0.01060000000000
C        -3.21390000000000   -1.04100000000000    1.17780000000000
C        -4.50750000000000   -0.55290000000000    1.10420000000000
H        -5.06490000000000   -0.40480000000000    2.01190000000000
C        -5.09800000000000   -0.23650000000000   -0.11490000000000
C        -4.35600000000000   -0.40600000000000   -1.27920000000000
H        -4.79320000000000   -0.13940000000000   -2.22490000000000
C        -3.06460000000000   -0.90360000000000   -1.25000000000000
C        -2.59590000000000   -1.35390000000000    2.49230000000000
H        -1.50790000000000   -1.30610000000000    2.43150000000000
H        -2.87300000000000   -2.35490000000000    2.82510000000000
H        -2.91310000000000   -0.64120000000000    3.25470000000000
C        -6.47570000000000    0.32460000000000   -0.16760000000000
H        -6.97180000000000    0.06310000000000   -1.10320000000000
H        -6.45360000000000    1.41240000000000   -0.09080000000000
H        -7.08810000000000   -0.05830000000000    0.64970000000000
C        -2.28770000000000   -1.04770000000000   -2.50860000000000
H        -1.32790000000000   -1.53190000000000   -2.32640000000000
H        -2.08590000000000   -0.07220000000000   -2.95300000000000
H        -2.83250000000000   -1.64790000000000   -3.23840000000000
Cl       -0.33050000000000    1.27690000000000    2.31350000000000
Cl        0.33220000000000    1.13630000000000   -2.36270000000000
61
 energy: -85.936555301975 gnorm: 0.494991264398 xtb: 6.4.1 (afa7bdf)
Ru       -0.00168026948991    1.05601249098958    0.00074146347348
C         1.32345023674843    2.53562893738645    0.07563521339710
H         1.96358426479913    2.52783638148415   -0.81467977770409
C         0.00326871616387    3.33781190116590   -0.08550743860078
H         0.11856294022060    3.97959515234273   -0.96469282545472
C        -1.30836354077145    2.52820100256041   -0.27240497940220
H        -2.10425490623485    2.81831796444426    0.43172266041630
H        -1.69738764301785    2.52641982414466   -1.29742254721308
H        -0.11709013612213    3.95641154369015    0.80932779497502
H         1.91068456268023    2.84100464271097    0.95729802513174
N         1.09335260514920   -1.68665313571474    0.05808769872679
N        -1.09637352155259   -1.68644498995919    0.04897487468561
C        -0.00144076177484   -0.91990612399322    0.04562890518773
C         0.76721238386798   -3.11572025740986    0.08020730838594
H         1.19047873588353   -3.59183592762343    0.97189345914346
H         1.18295365001668   -3.62030399378887   -0.79851103258045
C        -0.77132653343117   -3.11521324861202    0.08632991977875
H        -1.19563524866640   -3.63060227707182   -0.78241141992911
H        -1.18678650744845   -3.57918020871513    0.98763852708598
C         2.44919378326050   -1.19953903031586    0.07270215586767
C         3.17884214704674   -1.11117862982007   -1.12035465494864
C         4.48155608336612   -0.62990005358638   -1.08375121135283
H         5.03717365595555   -0.54653880428379   -2.00768215739664
C         5.08134547481728   -0.23211023821665    0.10303737572692
C         4.34575556032900   -0.33203458355206    1.27402603192597
H         4.79147406226339   -0.01420364594463    2.20648906290791
C         3.04139196645510   -0.81467036271112    1.28142717964531
C         2.56832759295111   -1.51565189892038   -2.42439603825337
H         1.48547997766548   -1.44841225062373   -2.37229979366593
H         2.85009717331043   -2.53740815551611   -2.68202360452488
H         2.90470437995167   -0.85718630550429   -3.22119322104294
C         6.47387809444005    0.32426810267693    0.11374935015633
H         7.06960635452890   -0.09330552515136   -0.69487609972643
H         6.97213208006816    0.11458343517250    1.05770912707200
H         6.44431065531368    1.40700865638837   -0.01625714352050
C         2.28927319225855   -0.89242237939834    2.57084549817153
H         2.05329276601680    0.11205638101905    2.92092310080300
H         2.87705956208764   -1.39310499120482    3.33796630742958
H         1.34974447421737   -1.42239083592461    2.44439301268781
C        -2.45126338821315   -1.19939787665780   -0.00628804208386
C        -3.18773658508873   -1.03474697792222    1.17416934019993
C        -4.48990319476620   -0.55689659459984    1.09913229299131
H        -5.05088726154348   -0.41504957347277    2.01247686039264
C        -5.08258690459468   -0.23589679045138   -0.11423789843519
C        -4.34034034307281   -0.41061910041878   -1.27214890661588
H        -4.78064989646612   -0.15331530111016   -2.22574758788947
C        -3.03607551467470   -0.89287793136892   -1.24088556531523
C        -2.58445878374296   -1.35782120150420    2.50384562204673
H        -1.50081650679142   -1.30269538771639    2.45166699934927
H        -2.87598602328151   -2.35833209637323    2.82596199364745
H        -2.91771149769174   -0.64583091286134    3.25418830769127
C        -6.47488835132677    0.31851737295889   -0.16799658201988
H        -6.96278723912489    0.06266031582072   -1.10593171525447
H        -6.44679958679738    1.40630054628580   -0.09043887811384
H        -7.07938273801390   -0.05936288408110    0.65356685007640
C        -2.27866074276256   -1.05493054863654   -2.51968013487988
H        -1.31967196134935   -1.53449610279526   -2.34788238671316
H        -2.08155900433967   -0.07796239303135   -2.95911505575400
H        -2.84495820796734   -1.64433977043610   -3.23879597211442
Cl       -0.33091955204323    1.26106205444532    2.29070006668007
Cl        0.32939522032855    1.08549259131302   -2.33414971535136
61
 energy: -85.930123169062 gnorm: 0.488587069690 xtb: 6.4.1 (afa7bdf)
Ru        0.00566915511106    1.06623398403583   -0.05755245405923
C         1.32002776385192    2.51693868694690    0.05919511992439
H         1.96575321363357    2.56976431803097   -0.83574708355286
C         0.00362416438260    3.38155056022434   -0.09243182615764
H         0.12123258362945    3.96051572578310   -0.98862685704190
C        -1.30079110939228    2.50930712630467   -0.28545714335639
H        -2.04143926056627    2.80124438675190    0.49374035041564
H        -1.68938559680355    2.56549824914290   -1.31738399014589
H        -0.11765969818260    3.93730104191144    0.81791664377774
H         1.83129372686597    2.82065920316047    1.00424407227588
N         1.06178733589094   -1.68027996316576    0.06075121212826
N        -1.06545365502506   -1.68043235620648    0.05075769421992
C        -0.00284557849359   -0.96119137304076    0.06451191074464
C         0.76964339654960   -3.09444960535478    0.08069695021595
H         1.18746932666715   -3.58345655916047    0.97091631117576
H         1.18052317292964   -3.61102252907034   -0.79646610080458
C        -0.77403902064197   -3.09405070033573    0.08689320183566
H        -1.19293587075236   -3.62131515781366   -0.78060759534793
H        -1.18427353363978   -3.57073874150288    0.98645743194008
C         2.41711072534871   -1.16600286907966    0.06897961039343
C         3.15595270415955   -1.11094107095618   -1.11108658327754
C         4.46857998228147   -0.63562915040363   -1.07562894234850
H         5.02798540945581   -0.55247879157979   -2.00787014452430
C         5.07024435552484   -0.23152928534102    0.10297266143579
C         4.33581845270077   -0.33931253699080    1.26599215260980
H         4.78372154530858   -0.02226946196240    2.20777958519322
C         3.01617135103820   -0.80953971446979    1.27049182600463
C         2.55824667441468   -1.52122170485612   -2.43526020311282
H         1.48208074171196   -1.44691889814418   -2.38356896454811
H         2.85362629928357   -2.54110476924883   -2.68460598405363
H         2.90911014247691   -0.86077521082887   -3.21741022376106
C         6.48088891922198    0.32029650088037    0.11434432118515
H         7.06573950768021   -0.09200241675518   -0.69884177445774
H         6.96778595337833    0.11698511343510    1.06055704998373
H         6.44120221803845    1.40295978182402   -0.01607303753772
C         2.28204983495367   -0.90078892070601    2.58273997620808
H         2.05012170984041    0.10755982929679    2.92008144737042
H         2.88627960632908   -1.38920336914170    3.33987930569522
H         1.34412956627160   -1.41990789680308    2.45806531162904
C        -2.41992520179468   -1.16611342030092   -0.00193182505739
C        -3.16545978711642   -1.03510931115168    1.16705332019070
C        -4.47729848569469   -0.56321174490156    1.09160160506388
H        -5.04193787830601   -0.42052123042712    2.01289341149377
C        -5.07148532043887   -0.23533351746153   -0.11391479969576
C        -4.33021740706519   -0.41745310905028   -1.26339128008290
H        -4.77270286375808   -0.16141166798150   -2.22656642437029
C        -3.01103297673696   -0.88808366106524   -1.22791084980807
C        -2.57438784844149   -1.36275020941174    2.51548412147685
H        -1.49810468814501   -1.29766822452461    2.46314511812690
H        -2.88015069720634   -2.36174877779149    2.82864970429386
H        -2.92117782358981   -0.64900228487475    3.24992842675490
C        -6.48186613963464    0.31446807699515   -0.16891831991201
H        -6.95860796275924    0.06479980138104   -1.10902387612948
H        -6.44358776299553    1.40219718547500   -0.09028320746266
H        -7.07538643022949   -0.05765702175282    0.65740730704401
C        -2.27071041191475   -1.06362382827999   -2.53025021924969
H        -1.31376489956571   -1.53381430433031   -2.36140135561556
H        -2.08172004219976   -0.08280775109681   -2.96027559973530
H        -2.85340481529739   -1.64165850515420   -3.24093498474977
Cl       -0.33440228214499    1.24464974635830    2.31527989011604
Cl        0.33148550960105    1.05030230453633   -2.34928540096697
61
 energy: -85.629486187532 gnorm: 1.922946756003 xtb: 6.4.1 (afa7bdf)
Ru       -0.00761580691821    1.19511032643919    0.05017518528872
C         1.33495522568843    2.51593464158334    0.07413669046311
H         2.00219856545430    2.52624572109452   -0.80395665221663
C         0.00360694175380    3.38230444627563   -0.09649532295122
H         0.12236919287964    3.96810730847072   -0.99361652392263
C        -1.31953526104182    2.50891781356724   -0.28392953870787
H        -2.04983112691094    2.79472326238481    0.49618919675401
H        -1.73642604327215    2.51948782344064   -1.30132121217394
H        -0.11833243401703    3.94977352554439    0.81697352637308
H         1.84148634441059    2.81218687564299    1.01061689102442
N         1.07828767198111   -1.68756248329539    0.05969822588601
N        -1.08232243251318   -1.68857354076226    0.05054722780439
C        -0.00233856135487   -0.96735926812126    0.06197066823117
C         0.76930404892013   -3.10394364752043    0.07832441192378
H         1.18841807566701   -3.58292463669900    0.97067963602813
H         1.18187710978671   -3.61110637122218   -0.79955848427080
C        -0.77367152999874   -3.10400378642690    0.08464447615129
H        -1.19425526563666   -3.62172005292163   -0.78372139300476
H        -1.18501620352923   -3.57082350869100    0.98630667834137
C         2.42153984023393   -1.16930684270021    0.06847159877059
C         3.15690235376941   -1.10880483377806   -1.11583243200653
C         4.46662097490779   -0.63385845450546   -1.07822238799216
H         5.02526561067170   -0.55427119382108   -2.00734301705378
C         5.06898282598904   -0.23179140218289    0.10270374058178
C         4.33301757801959   -0.33674721151855    1.26847542661793
H         4.78157575413649   -0.02473298059711    2.20801407646084
C         3.01764384809878   -0.80712878415833    1.27392967024547
C         2.55895019668984   -1.52097894651092   -2.43335679927169
H         1.48052703963980   -1.44635657430259   -2.38787884004510
H         2.85277461139030   -2.54113675609353   -2.68378303786527
H         2.90934692752358   -0.86114115624497   -3.21843471753203
C         6.47503459752515    0.31967119868564    0.11428145919798
H         7.06342520194131   -0.09353376656853   -0.69835354831560
H         6.96573419202975    0.11517773166216    1.06037129438665
H         6.43938852633340    1.40224169497590   -0.01599283686334
C         2.28167400773004   -0.89851486119802    2.58123259022851
H         2.04890833821821    0.10784634872878    2.92431821740404
H         2.88684988946946   -1.38901806462672    3.33849861957432
H         1.34280959603461   -1.42296598151756    2.46171709977755
C        -2.42414139274382   -1.16912550915190   -0.00260579126532
C        -3.16650918587561   -1.03194953421682    1.17037462355514
C        -4.47555315622796   -0.56108753739824    1.09448554064229
H        -5.03966506257223   -0.42293495118526    2.01302223465857
C        -5.07031782627616   -0.23561558654463   -0.11370977421544
C        -4.32742700164543   -0.41507522224214   -1.26571039558645
H        -4.77030233090111   -0.16351461072538   -2.22613523429373
C        -3.01229780098254   -0.88610623275432   -1.23329126429583
C        -2.57481967762189   -1.36213346786924    2.51375731512165
H        -1.49541786616974   -1.29948257852230    2.46729270194983
H        -2.87862695080824   -2.36170066393216    2.82755107390509
H        -2.92205857079622   -0.64993045345099    3.25244439085590
C        -6.47608173444402    0.31381268271918   -0.16833316148953
H        -6.95637814861796    0.06320991398855   -1.10849749248417
H        -6.44186984432492    1.40144838417222   -0.08997850553639
H        -7.07327946065616   -0.05955065866413    0.65718598213482
C        -2.27139563244051   -1.06188465306997   -2.52885575146953
H        -1.31270974243294   -1.53504846026379   -2.36534641531107
H        -2.07857671342163   -0.08289162682595   -2.96196636650479
H        -2.85485795085328   -1.64092373920845   -3.23986115242557
Cl       -0.33095171824693    1.26199238339291    2.31951881316157
Cl        0.35230734635703    1.03776850924141   -2.51112123442937
61
 energy: -85.916770730217 gnorm: 0.487727639004 xtb: 6.4.1 (afa7bdf)
Ru        0.00599109342651    1.09970147684090   -0.04682576299818
C         1.32511581766459    2.56315506719157    0.08820491452108
H         2.00938835121357    2.52086874145954   -0.78906046100777
C         0.00438636371071    3.36548824069010   -0.09965668469398
H         0.12270022101022    3.97666236244174   -0.99645114531310
C        -1.31377606271679    2.55577578724107   -0.26879737976814
H        -2.07157508329741    2.76918954964407    0.48525447121127
H        -1.74717592536625    2.51390836398276   -1.28974610373099
H        -0.11843798464831    3.95560475352143    0.81719146005972
H         1.86520107627316    2.78712315284188    1.00603372750330
N         1.09693174997218   -1.68836272452582    0.06042592816681
N        -1.10155102766919   -1.68911111891835    0.05171508343747
C        -0.00360471641811   -0.90647533331748    0.07068442079654
C         0.76731271612361   -3.10985858310880    0.07905224815211
H         1.18863593191576   -3.58195467028638    0.97104826180338
H         1.18214906043127   -3.60956852778300   -0.79968476020335
C        -0.77168563715785   -3.10992077790288    0.08528978682579
H        -1.19458627323317   -3.62017216071667   -0.78384533663572
H        -1.18525096206654   -3.56990588781887    0.98671308583897
C         2.42304219385380   -1.17308006669771    0.06875288001584
C         3.15967184365215   -1.10657061616672   -1.12144556360222
C         4.46525067368265   -0.63342971962440   -1.08193129376138
H         5.02288162426362   -0.55580668914569   -2.00536452643446
C         5.07107949669163   -0.23200357746668    0.10250417651911
C         4.33032261738560   -0.33525487041251    1.27229899550604
H         4.77964492543679   -0.02660857160608    2.20626912925082
C         3.02152637291195   -0.80482165917516    1.28013473659208
C         2.56132496551053   -1.52051444002936   -2.42902756179232
H         1.47830666745600   -1.44747030835325   -2.38954209552090
H         2.85196082518445   -2.54104483175944   -2.68348666952137
H         2.90970432416867   -0.86090348723071   -3.21979053007311
C         6.46850577387190    0.31953071975170    0.11393022780965
H         7.06349426826645   -0.09455196926674   -0.69835966749888
H         6.96577700471309    0.11424929406559    1.06051707782725
H         6.43912359708556    1.40205557636583   -0.01605202433619
C         2.28334040283466   -0.89573390335263    2.57748752560716
H         2.04798023975061    0.10834841533073    2.92571380550859
H         2.88714209781221   -1.38929840303328    3.33822608830060
H         1.34137647663731   -1.42474463940726    2.46330484380134
C        -2.42593620262494   -1.17314993208993   -0.00218768206247
C        -3.16953438820275   -1.02940659229482    1.17595683836921
C        -4.47431136789136   -0.56031880029537    1.09831401981136
H        -5.03743934361191   -0.42439945826979    2.01125640323764
C        -5.07244869422386   -0.23581368307178   -0.11350929571142
C        -4.32465931816282   -0.41396630761071   -1.26950134244161
H        -4.76824531060875   -0.16542001168802   -2.22417242800108
C        -3.01596109650388   -0.88407690662652   -1.23933167807583
C        -2.57725954277366   -1.36172052991455    2.50946147229255
H        -1.49333598453414   -1.30001706667775    2.46910356346000
H        -2.87773026150518   -2.36148281742177    2.82743985911111
H        -2.92244768762213   -0.64928595297489    3.25394486620774
C        -6.46956558305425    0.31373373429921   -0.16785065591679
H        -6.95643939523539    0.06224609474609   -1.10865928124375
H        -6.44159192228625    1.40126752540013   -0.09000357613972
H        -7.07333513438404   -0.06051358391508    0.65718478203563
C        -2.27320066860177   -1.05931949386137   -2.52526161234728
H        -1.31096937685045   -1.53711720906004   -2.36662657919408
H        -2.07815634862029   -0.08247343195403   -2.96364764873890
H        -2.85506672246734   -1.64148219208917   -3.23924086342084
Cl       -0.33032761905605    1.27505213512039    2.32121244494905
Cl        0.34553686848242    1.04187051598670   -2.46486691434390
61
 energy: -85.548643917398 gnorm: 1.523917009221 xtb: 6.4.1 (afa7bdf)
Ru       -0.00448283690840    1.03140885858526   -0.01803505078311
C         1.42126512181587    2.47166685300279    0.05766268268984
H         1.99404806033383    2.56261744705085   -0.83866866299712
C         0.00651095399234    3.32084520866648   -0.10382896621697
H         0.12189548075996    3.96675270681607   -0.99158422953369
C        -1.39066174136326    2.46570046143227   -0.30366368680452
H        -2.03341426934982    2.80981789667718    0.51269738640285
H        -1.70937441811093    2.56146578205020   -1.32984828959506
H        -0.11609342872756    3.94509679781831    0.80543910970855
H         1.80504668848967    2.83817625374720    1.02639987905625
N         1.09328185503955   -1.68007724275788    0.05649365429035
N        -1.09542714076405   -1.67960732046797    0.04838814267207
C         0.00249243327959   -0.87638781456868    0.01122212409174
C         0.76630000169695   -3.10856058659761    0.07903996259818
H         1.18915956787637   -3.58066496402981    0.97137672718097
H         1.18261365215301   -3.60933032446688   -0.80001072749540
C        -0.77054749273853   -3.10823242810031    0.08527327850083
H        -1.19510517111723   -3.61981108121763   -0.78414332226494
H        -1.18571143231948   -3.56873279948204    0.98701406324994
C         2.42718577096542   -1.17616730357407    0.06863410537049
C         3.16089683092753   -1.10558217275237   -1.12258320930817
C         4.46525226601898   -0.63237660222805   -1.08283961733951
H         5.02195609613002   -0.55702456501318   -2.00542543201155
C         5.07003704580711   -0.23235278407622    0.10254805534693
C         4.32972975296624   -0.33382985235233    1.27295012478167
H         4.77866628596393   -0.02724294583042    2.20642810804007
C         3.02247548003622   -0.80434548302942    1.28093036891266
C         2.56159114375934   -1.52011036130348   -2.42826578140364
H         1.47768763887013   -1.44824097424551   -2.39130863827175
H         2.85113271180808   -2.54126177377736   -2.68247355939046
H         2.90971533603339   -0.86173531843813   -3.22052939202082
C         6.46574045332818    0.31905190396485    0.11376199679536
H         7.06221434831894   -0.09555656893124   -0.69777955041651
H         6.96462591989502    0.11340284660972    1.05990977354842
H         6.43815157173749    1.40168729845586   -0.01633733979692
C         2.28295708634574   -0.89413856469258    2.57674600447364
H         2.04725708441551    0.10935926496344    2.92753511461477
H         2.88686563551849   -1.38853533190699    3.33742184174800
H         1.34111074466383   -1.42563963958804    2.46476163396279
C        -2.42907986097150   -1.17586329565018   -0.00341501060316
C        -3.16991607399640   -1.02786196052641    1.17675441309927
C        -4.47401832903714   -0.55886861855897    1.09911621037376
H        -5.03646428015792   -0.42495161327263    2.01145555558682
C        -5.07143944936275   -0.23610324786486   -0.11349483232486
C        -4.32427972214717   -0.41275042443006   -1.27030112815203
H        -4.76733284635107   -0.16656623346143   -2.22432590376322
C        -3.01743722291710   -0.88375577843900   -1.24053149534291
C        -2.57735159399873   -1.36031071129798    2.50886939860364
H        -1.49237564213681   -1.30037440426410    2.47086319913372
H        -2.87669610650679   -2.36062152953268    2.82706437014918
H        -2.92257183142469   -0.64900260478698    3.25510505605275
C        -6.46681906785293    0.31339803689246   -0.16775339464268
H        -6.95526227945071    0.06129206965188   -1.10809287459162
H        -6.44061076627776    1.40107281069789   -0.09020450575643
H        -7.07210707955923   -0.06119073603034    0.65659886612192
C        -2.27322152799114   -1.05848601133717   -2.52480268809243
H        -1.31094053240365   -1.53859454435676   -2.36805980076969
H        -2.07703174399569   -0.08250307750651   -2.96507810315708
H        -2.85519942749133   -1.64176415442099   -3.23815778006232
Cl       -0.30894812978396    1.30730930551682    2.17199542397431
Cl        0.30125842626553    1.09369194656564   -2.15821365822374
61
 energy: -85.888964057582 gnorm: 0.583315402966 xtb: 6.4.1 (afa7bdf)
Ru        0.00473373373322    1.11658043264848   -0.03155964013737
C         1.32455759802797    2.53481832210059    0.04843170770679
H         2.00992736821016    2.54596523627946   -0.82569215367365
C         0.00600621262735    3.33513810715317   -0.10507832721735
H         0.12159482546305    3.96798007997995   -0.99205025579872
C        -1.30601780354604    2.52182811533786   -0.29033044943685
H        -2.06887732533181    2.75724045805753    0.49707038877316
H        -1.72725748415595    2.54434577800072   -1.32118394700002
H        -0.11583718260405    3.94476078948323    0.80351434061143
H         1.84826668247546    2.77634039819364    1.02287513706751
N         1.09107116711147   -1.68305071732108    0.05616308030477
N        -1.09346430258793   -1.68251671369864    0.04828548638638
C        -0.00083719841816   -0.94311395742613    0.03404765739843
C         0.76696386709356   -3.10923266375395    0.07887456599232
H         1.18937687490840   -3.58073687085894    0.97140646632018
H         1.18278371408307   -3.60930569148710   -0.80056299771245
C        -0.77111680257795   -3.10884797722092    0.08518124648201
H        -1.19525403797325   -3.61971420550707   -0.78465564680534
H        -1.18583368960577   -3.56882627722542    0.98701411029545
C         2.42895610296685   -1.17629284104793    0.06879422409812
C         3.16049877126719   -1.10508987818008   -1.12210107576262
C         4.46537521617186   -0.63164032395120   -1.08252637326960
H         5.02177613822885   -0.55725792269534   -2.00597916171213
C         5.06869708155437   -0.23263392114944    0.10260257255927
C         4.32994946442878   -0.33337446545494    1.27237717180240
H         4.77842520759361   -0.02764324404797    2.20696636381493
C         3.02187894153892   -0.80445382097905    1.28034970515295
C         2.56107859348723   -1.51968417629535   -2.42904662420177
H         1.47765424160468   -1.44832610476340   -2.39223848361176
H         2.85085233075368   -2.54096658119285   -2.68227487036142
H         2.90973444223070   -0.86185915152740   -3.22078209857357
C         6.46554077390764    0.31884231559934    0.11378437349039
H         7.06137938481945   -0.09572434335853   -0.69742505267025
H         6.96385729288491    0.11304615992526    1.05950181877383
H         6.43760302601572    1.40158065292931   -0.01628182873136
C         2.28242433872641   -0.89425269473876    2.57718659616162
H         2.04662933131875    0.10931616093617    2.92816590120524
H         2.88684177773693   -1.38838517433296    3.33682017582513
H         1.34138419726361   -1.42589593025604    2.46540629171490
C        -2.43091728519456   -1.17607718941143   -0.00366927295463
C        -3.16931177570514   -1.02761402029377    1.17616418021877
C        -4.47402370728242   -0.55838900154520    1.09868462536585
H        -5.03623631818363   -0.42545840550388    2.01197879786594
C        -5.07009163274799   -0.23644030338363   -0.11342085524082
C        -4.32455496720036   -0.41214622447221   -1.26978066771357
H        -4.76712056118122   -0.16678303780676   -2.22482811316609
C        -3.01695947059746   -0.88369295185184   -1.23982919152123
C        -2.57675725870333   -1.36013194343542    2.50940098569374
H        -1.49238262832482   -1.30055431312649    2.47163131497237
H        -2.87633027967694   -2.36065752800493    2.82661851088749
H        -2.92251660493925   -0.64952294534793    3.25527780550063
C        -6.46663222607871    0.31312328214651   -0.16768600419584
H        -6.95450324139033    0.06100835190642   -1.10760353503937
H        -6.44008563614905    1.40089000736152   -0.09001981398696
H        -7.07128782910519   -0.06154946408574    0.65630153176886
C        -2.27266304065005   -1.05829474868820   -2.52543818685859
H        -1.31114718494901   -1.53877708928800   -2.36889147477332
H        -2.07665609346046   -0.08225429422916   -2.96574326195098
H        -2.85524953798425   -1.64135034321168   -3.23772664630226
Cl       -0.31977853112301    1.31541113355241    2.24298759132869
Cl        0.31308293919279    1.08900367056515   -2.23875871516028
61
 energy: -85.679338923409 gnorm: 1.199751728436 xtb: 6.4.1 (afa7bdf)
Ru       -0.00431832595063    1.02276985950403   -0.01046653902085
C         1.35337548594742    2.51682787648184    0.10265130089229
H         1.97686595015560    2.58275852768800   -0.84307305080736
C         0.00691450679391    3.31425839637774   -0.09981085455251
H         0.12226366193315    3.95629247419391   -0.98521715871453
C        -1.33414959202454    2.52074222819534   -0.27513918582971
H        -2.06795076906079    2.76977714749259    0.50550931978424
H        -1.71688678234669    2.55998270265194   -1.32465039607103
H        -0.11486945604271    3.93576758870627    0.79705903649374
H         1.85907480481055    2.78141098014807    1.03060702343516
N         1.08574471906235   -1.67391584013822    0.05818959181893
N        -1.08905084057523   -1.67411467442235    0.05074071905911