1
      -----------------------------------------------------------      
     |                   =====================                   |     
     |                           x T B                           |     
     |                   =====================                   |     
     |                         S. Grimme                         |     
     |          Mulliken Center for Theoretical Chemistry        |     
     |                    University of Bonn                     |     
      -----------------------------------------------------------      

   * xtb version 6.4.1 (afa7bdf) compiled by 'ehlert@majestix' on 2021-06-10

   xtb is free software: you can redistribute it and/or modify it under
   the terms of the GNU Lesser General Public License as published by
   the Free Software Foundation, either version 3 of the License, or
   (at your option) any later version.
   
   xtb is distributed in the hope that it will be useful,
   but WITHOUT ANY WARRANTY; without even the implied warranty of
   MERCHANTABILITY or FITNESS FOR A PARTICULAR PURPOSE.  See the
   GNU Lesser General Public License for more details.
   
   Cite this work as:
   * C. Bannwarth, E. Caldeweyher, S. Ehlert, A. Hansen, P. Pracht,
     J. Seibert, S. Spicher, S. Grimme, WIREs Comput. Mol. Sci., 2020, 11,
     e01493. DOI: 10.1002/wcms.1493
   
   for GFN2-xTB:
   * C. Bannwarth, S. Ehlert and S. Grimme., J. Chem. Theory Comput., 2019,
     15, 1652-1671. DOI: 10.1021/acs.jctc.8b01176
   for GFN1-xTB:
   * S. Grimme, C. Bannwarth, P. Shushkov, J. Chem. Theory Comput., 2017,
     13, 1989-2009. DOI: 10.1021/acs.jctc.7b00118
   for GFN0-xTB:
   * P. Pracht, E. Caldeweyher, S. Ehlert, S. Grimme, ChemRxiv, 2019, preprint.
     DOI: 10.26434/chemrxiv.8326202.v1
   for GFN-FF:
   * S. Spicher and S. Grimme, Angew. Chem. Int. Ed., 2020, 59, 15665-15673.
     DOI: 10.1002/anie.202004239
   
   for DFT-D4:
   * E. Caldeweyher, C. Bannwarth and S. Grimme, J. Chem. Phys., 2017,
     147, 034112. DOI: 10.1063/1.4993215
   * E. Caldeweyher, S. Ehlert, A. Hansen, H. Neugebauer, S. Spicher,
     C. Bannwarth and S. Grimme, J. Chem. Phys., 2019, 150, 154122.
     DOI: 10.1063/1.5090222
   * E. Caldeweyher, J.-M. Mewes, S. Ehlert and S. Grimme, Phys. Chem. Chem. Phys.
     2020, 22, 8499-8512. DOI: 10.1039/D0CP00502A
   
   for sTDA-xTB:
   * S. Grimme and C. Bannwarth, J. Chem. Phys., 2016, 145, 054103.
     DOI: 10.1063/1.4959605
   
   in the mass-spec context:
   * V. Asgeirsson, C. Bauer and S. Grimme, Chem. Sci., 2017, 8, 4879.
     DOI: 10.1039/c7sc00601b
   * J. Koopman and S. Grimme, ACS Omega 2019, 4, 12, 15120-15133.
     DOI: 10.1021/acsomega.9b02011
   
   for metadynamics refer to:
   * S. Grimme, J. Chem. Theory Comput., 2019, 155, 2847-2862
     DOI: 10.1021/acs.jctc.9b00143
   
   for SPH calculations refer to:
   * S. Spicher and S. Grimme, J. Chem. Theory Comput., 2021, 17, 1701-1714
     DOI: 10.1021/acs.jctc.0c01306
   
   with help from (in alphabetical order)
   P. Atkinson, C. Bannwarth, F. Bohle, G. Brandenburg, E. Caldeweyher
   M. Checinski, S. Dohm, S. Ehlert, S. Ehrlich, I. Gerasimov, J. Koopman
   C. Lavigne, S. Lehtola, F. März, M. Müller, F. Musil, H. Neugebauer
   J. Pisarek, C. Plett, P. Pracht, J. Seibert, P. Shushkov, S. Spicher
   M. Stahn, M. Steiner, T. Strunk, J. Stückrath, T. Rose, and J. Unsleber
   
 * started run on 2025/08/30 at 01:27:15.532     

           -------------------------------------------------
          |                Calculation Setup                |
           -------------------------------------------------

          program call               : xtb HII-0_C_1_1_1_2ndGO.sdf --input HII-0_C_1_1_1_2ndGO.xcontrol --acc 0.05
          hostname                   : c5-11
          coordinate file            : HII-0_C_1_1_1_2ndGO.sdf
          omp threads                :                    10
          number of atoms            :                    61
          number of electrons        :                   160
          charge                     :                     0
          spin                       :                   0.0
          first test random number   :      0.76934432629229

   ID    Z sym.   atoms
    1   44 Ru     1
    2    6 C      2, 4, 6, 13, 14, 17, 20-22, 24, 25, 27, 28, 32, 36, 40-42,
                  44, 45, 47, 48, 52, 56
    3    1 H      3, 5, 7-10, 15, 16, 18, 19, 23, 26, 29-31, 33-35, 37-39,
                  43, 46, 49-51, 53-55, 57-59
    4    7 N      11, 12
    5   17 Cl     60, 61
constraining bond 1 2 to    1.9675675 Å, actual value:    1.9675675 Å
constraining bond 1 6 to    1.9673749 Å, actual value:    1.9673749 Å
constraining bond 1 13 to    2.0224959 Å, actual value:    2.0224959 Å
constraining bond 1 60 to    2.3643415 Å, actual value:    2.3643415 Å
constraining bond 1 61 to    2.3644656 Å, actual value:    2.3644656 Å
constraining angle 2 1 6 to   88.1391611°, actual value:   88.1391611°
constraining angle 2 1 13 to  135.9232355°, actual value:  135.9232355°
constraining angle 2 1 60 to   88.6970140°, actual value:   88.6970140°
constraining angle 2 1 61 to   88.0097199°, actual value:   88.0097199°
constraining angle 6 1 13 to  135.9371559°, actual value:  135.9371559°
constraining angle 6 1 60 to   88.0799025°, actual value:   88.0799025°
constraining angle 6 1 61 to   88.6209247°, actual value:   88.6209247°
constraining angle 13 1 60 to   92.4007905°, actual value:   92.4007905°
constraining angle 13 1 61 to   92.1874060°, actual value:   92.1874060°
constraining angle 60 1 61 to  175.4118020°, actual value:  175.4118020°
constraining angle 6 1 2 3 to -110.2992040°, actual value: -110.2992040°
constraining angle 6 1 2 10 to  110.2567356°, actual value:  110.2567356°
constraining angle 13 1 2 3 to   69.4742964°, actual value:   69.4742964°
constraining angle 13 1 2 10 to  -69.9697640°, actual value:  -69.9697640°
constraining angle 60 1 2 3 to  161.5800405°, actual value:  161.5800405°
constraining angle 60 1 2 10 to   22.1359801°, actual value:   22.1359801°
constraining angle 61 1 2 3 to  -21.6151336°, actual value:  -21.6151336°
constraining angle 61 1 2 10 to -161.0591940°, actual value: -161.0591940°
constraining angle 2 1 6 7 to -110.4010336°, actual value: -110.4010336°
constraining angle 2 1 6 8 to  110.1790605°, actual value:  110.1790605°
constraining angle 13 1 6 7 to   69.8255229°, actual value:   69.8255229°
constraining angle 13 1 6 8 to  -69.5943830°, actual value:  -69.5943830°
constraining angle 60 1 6 7 to  -21.6430186°, actual value:  -21.6430186°
constraining angle 60 1 6 8 to -161.0629244°, actual value: -161.0629244°
constraining angle 61 1 6 7 to  161.5460341°, actual value:  161.5460341°
constraining angle 61 1 6 8 to   22.1261282°, actual value:   22.1261282°
########################################################################
[WARNING] Please study the warnings concerning your input carefully
-1- set_rdsetbl: Set-blocks will become obsolete in xtb 6.0 and newer
########################################################################

           -------------------------------------------------
          |                 G F N 2 - x T B                 |
           -------------------------------------------------

        Reference                      10.1021/acs.jctc.8b01176
      * Hamiltonian:
        H0-scaling (s, p, d)           1.850000    2.230000    2.230000
        zeta-weighting                 0.500000
      * Dispersion:
        s8                             2.700000
        a1                             0.520000
        a2                             5.000000
        s9                             5.000000
      * Repulsion:
        kExp                           1.500000    1.000000
        rExp                           1.000000
      * Coulomb:
        alpha                          2.000000
        third order                    shell-resolved
        anisotropic                    true
        a3                             3.000000
        a5                             4.000000
        cn-shift                       1.200000
        cn-exp                         4.000000
        max-rad                        5.000000

q/qsh data taken from xtbrestart
CAMM data taken from xtbrestart

          ...................................................
          :                      SETUP                      :
          :.................................................:
          :  # basis functions                 166          :
          :  # atomic orbitals                 163          :
          :  # shells                           93          :
          :  # electrons                       160          :
          :  max. iterations                  1000          :
          :  Hamiltonian                  GFN2-xTB          :
          :  restarted?                       true          :
          :  GBSA solvation                  false          :
          :  PC potential                    false          :
          :  electronic temp.          300.0000000     K    :
          :  accuracy                    0.0500000          :
          :  -> integral cutoff          0.3801030E+02      :
          :  -> integral neglect         0.5000000E-09      :
          :  -> SCF convergence          0.5000000E-07 Eh   :
          :  -> wf. convergence          0.5000000E-05 e    :
          :  Broyden damping             0.4000000          :
          ...................................................

 iter      E             dE          RMSdq      gap      omega  full diag
   1    -87.1327256 -0.871327E+02  0.268E-05    1.65       0.0  T
   2    -87.1327256  0.779892E-10  0.525E-05    1.65     243.7  T
   3    -87.1327256 -0.874962E-10  0.124E-05    1.65    1029.4  T
   4    -87.1327256 -0.554223E-12  0.621E-06    1.65    2060.6  T

   *** convergence criteria satisfied after 4 iterations ***

         #    Occupation            Energy/Eh            Energy/eV
      -------------------------------------------------------------
         1        2.0000           -1.0148997             -27.6168
       ...           ...                  ...                  ...
        74        2.0000           -0.3772660             -10.2659
        75        2.0000           -0.3737928             -10.1714
        76        2.0000           -0.3703042             -10.0765
        77        2.0000           -0.3694228             -10.0525
        78        2.0000           -0.3684840             -10.0270
        79        2.0000           -0.3401739              -9.2566
        80        2.0000           -0.3339416              -9.0870 (HOMO)
        81                         -0.2733908              -7.4393 (LUMO)
        82                         -0.2712078              -7.3799
        83                         -0.2331711              -6.3449
        84                         -0.2298255              -6.2539
        85                         -0.2245881              -6.1114
       ...                                ...                  ...
       163                          2.5393277              69.0986
      -------------------------------------------------------------
                  HL-Gap            0.0605507 Eh            1.6477 eV
             Fermi-level           -0.3036662 Eh           -8.2632 eV

 SCC (total)                   0 d,  0 h,  0 min,  0.052 sec
 SCC setup                      ...        0 min,  0.000 sec (  0.765%)
 Dispersion                     ...        0 min,  0.001 sec (  2.079%)
 classical contributions        ...        0 min,  0.000 sec (  0.177%)
 integral evaluation            ...        0 min,  0.006 sec ( 11.967%)
 iterations                     ...        0 min,  0.029 sec ( 56.028%)
 molecular gradient             ...        0 min,  0.015 sec ( 28.324%)
 printout                       ...        0 min,  0.000 sec (  0.588%)

         :::::::::::::::::::::::::::::::::::::::::::::::::::::
         ::                     SUMMARY                     ::
         :::::::::::::::::::::::::::::::::::::::::::::::::::::
         :: total energy             -85.947248296419 Eh    ::
         :: gradient norm              0.086483644749 Eh/a0 ::
         :: HOMO-LUMO gap              1.647669739612 eV    ::
         ::.................................................::
         :: SCC energy               -87.132725640421 Eh    ::
         :: -> isotropic ES            0.049008315958 Eh    ::
         :: -> anisotropic ES          0.007192020763 Eh    ::
         :: -> anisotropic XC          0.034127230299 Eh    ::
         :: -> dispersion             -0.083844443069 Eh    ::
         :: repulsion energy           1.182238959548 Eh    ::
         :: add. restraining           0.000000000000 Eh    ::
         :: total charge               0.000000000000 e     ::
         :::::::::::::::::::::::::::::::::::::::::::::::::::::

      ----------------------------------------------------------- 
     |                   =====================                   |
     |                        A N C O P T                        |
     |                   =====================                   |
     |               Approximate Normal Coordinate               |
     |                Rational Function Optimizer                |
      ----------------------------------------------------------- 

Optimization log is written to 'cli24_xtbtrj.xyz'

          ...................................................
          :                      SETUP                      :
          :.................................................:
          :   optimization level            normal          :
          :   max. optcycles                   200          :
          :   ANC micro-cycles                  20          :
          :   degrees of freedom               177          :
          :.................................................:
          :   RF solver                   davidson          :
          :   write xtbopt.log                true          :
          :   linear?                        false          :
          :   energy convergence         0.5000000E-05 Eh   :
          :   grad. convergence          0.1000000E-02 Eh/α :
          :   maximium RF displ.         1.0000000          :
          :   Hlow (freq-cutoff)         0.1000000E-01      :
          :   Hmax (freq-cutoff)         5.0000000          :
          :   S6 in model hess.         20.0000000          :
          ...................................................

generating ANC from read Hessian ...
 Shifting diagonal of input Hessian by   1.002142421254901E-002
 Lowest  eigenvalues of input Hessian
    0.010000    0.000000    0.000000    0.000000    0.000000    0.000000
    0.000000    0.010027    0.010119    0.010125    0.010160    0.010175
    0.010233    0.010273    0.010354    0.010358    0.010785    0.010926
 Highest eigenvalues
    1.030740    1.032111    1.136842    1.137178    1.164067    1.164156
 

........................................................................
.............................. CYCLE    1 ..............................
........................................................................
   1    -87.1327256 -0.871327E+02  0.112E-06    1.65       0.0  T
   2    -87.1327256  0.170530E-12  0.201E-06    1.65    6361.5  T
   3    -87.1327256 -0.156319E-12  0.326E-07    1.65   39310.4  T
     SCC iter.                  ...        0 min,  0.016 sec
     gradient                   ...        0 min,  0.014 sec
 * total energy  :   -85.9472483 Eh     change       -0.4973799E-12 Eh
   gradient norm :     0.0864837 Eh/α   predicted     0.0000000E+00 (-100.00%)
   displ. norm   :     0.4961593 α      lambda       -0.2661726E-01
   maximum displ.:     0.2118977 α      in ANC's #34, #33, #35, ...

........................................................................
.............................. CYCLE    2 ..............................
........................................................................
   1    -87.1650840 -0.871651E+02  0.362E-01    1.37       0.0  T
   2    -87.1637394  0.134462E-02  0.353E-01    1.35       1.0  T
   3    -87.1641157 -0.376258E-03  0.294E-01    1.40       1.0  T
   4    -87.1655067 -0.139109E-02  0.222E-01    1.36       1.0  T
   5    -87.1655793 -0.725733E-04  0.141E-01    1.36       1.0  T
   6    -87.1661005 -0.521236E-03  0.202E-02    1.37       1.0  T
   7    -87.1661015 -0.950425E-06  0.184E-02    1.37       1.0  T
   8    -87.1661074 -0.594546E-05  0.122E-02    1.37       1.1  T
   9    -87.1661103 -0.283621E-05  0.959E-03    1.37       1.3  T
  10    -87.1661120 -0.174591E-05  0.521E-03    1.37       2.5  T
  11    -87.1661125 -0.464739E-06  0.351E-03    1.37       3.6  T
  12    -87.1661128 -0.259972E-06  0.150E-03    1.37       8.5  T
  13    -87.1661128 -0.157794E-07  0.968E-04    1.37      13.2  T
  14    -87.1661128 -0.145054E-07  0.620E-04    1.37      20.7  T
  15    -87.1661128 -0.661794E-08  0.463E-04    1.37      27.7  T
  16    -87.1661128 -0.233847E-08  0.238E-04    1.37      53.8  T
  17    -87.1661128 -0.107555E-08  0.119E-04    1.37     107.5  T
  18    -87.1661128 -0.264734E-09  0.406E-05    1.37     315.4  T
  19    -87.1661128 -0.140545E-10  0.202E-05    1.37     632.4  T
     SCC iter.                  ...        0 min,  0.073 sec
     gradient                   ...        0 min,  0.014 sec
 * total energy  :   -85.9365553 Eh     change        0.1069299E-01 Eh
   gradient norm :     0.4949911 Eh/α   predicted    -0.1658539E-01 (-255.11%)
   displ. norm   :     0.4151531 α      lambda       -0.7803915E-01
   maximum displ.:     0.1669369 α      in ANC's #60, #33, #35, ...

........................................................................
.............................. CYCLE    3 ..............................
........................................................................
   1    -87.1769622 -0.871770E+02  0.388E-01    1.39       0.0  T
   2    -87.1773366 -0.374337E-03  0.364E-01    1.36       1.0  T
   3    -87.1782142 -0.877586E-03  0.193E-01    1.39       1.0  T
   4    -87.1757267  0.248741E-02  0.311E-01    1.33       1.0  T
   5    -87.1786464 -0.291966E-02  0.457E-02    1.37       1.0  T
   6    -87.1786437  0.273606E-05  0.441E-02    1.36       1.0  T
   7    -87.1787107 -0.670165E-04  0.167E-02    1.37       1.0  T
   8    -87.1787135 -0.277879E-05  0.883E-03    1.37       1.4  T
   9    -87.1787139 -0.476831E-06  0.661E-03    1.37       1.9  T
  10    -87.1787145 -0.578973E-06  0.395E-03    1.37       3.2  T
  11    -87.1787148 -0.288457E-06  0.272E-03    1.37       4.7  T
  12    -87.1787149 -0.117147E-06  0.174E-03    1.37       7.4  T
  13    -87.1787150 -0.561383E-07  0.101E-03    1.37      12.7  T
  14    -87.1787150 -0.118005E-07  0.599E-04    1.37      21.4  T
  15    -87.1787150 -0.558349E-08  0.418E-04    1.37      30.6  T
  16    -87.1787150 -0.245710E-08  0.269E-04    1.37      47.6  T
  17    -87.1787150 -0.131438E-08  0.226E-04    1.37      56.8  T
  18    -87.1787150 -0.724825E-09  0.526E-05    1.37     243.6  T
  19    -87.1787150 -0.206626E-10  0.226E-05    1.37     566.4  T
  20    -87.1787150 -0.875389E-11  0.113E-05    1.37    1129.6  T
     SCC iter.                  ...        0 min,  0.077 sec
     gradient                   ...        0 min,  0.014 sec
 * total energy  :   -85.9301232 Eh     change        0.6432133E-02 Eh
   gradient norm :     0.4885859 Eh/α   predicted    -0.4574471E-01 (-811.19%)
   displ. norm   :     0.4899262 α      lambda       -0.1197507E+00
   maximum displ.:     0.2550410 α      in ANC's #113, #72, #127, ...

........................................................................
.............................. CYCLE    4 ..............................
........................................................................
   1    -87.1645766 -0.871646E+02  0.671E-01    1.78       0.0  T
   2    -87.1653539 -0.777287E-03  0.536E-01    1.70       1.0  T
   3    -87.1656744 -0.320516E-03  0.351E-01    1.78       1.0  T
   4    -87.1655852  0.892252E-04  0.326E-01    1.70       1.0  T
   5    -87.1667435 -0.115827E-02  0.197E-01    1.76       1.0  T
   6    -87.1678976 -0.115411E-02  0.479E-02    1.73       1.0  T
   7    -87.1679528 -0.552233E-04  0.276E-02    1.73       1.0  T
   8    -87.1679557 -0.294495E-05  0.252E-02    1.74       1.0  T
   9    -87.1679635 -0.775918E-05  0.181E-02    1.74       1.0  T
  10    -87.1679694 -0.588168E-05  0.837E-03    1.74       1.5  T
  11    -87.1679704 -0.976538E-06  0.508E-03    1.74       2.5  T
  12    -87.1679708 -0.469117E-06  0.246E-03    1.74       5.2  T
  13    -87.1679710 -0.120534E-06  0.192E-03    1.74       6.7  T
  14    -87.1679711 -0.978851E-07  0.111E-03    1.74      11.6  T
  15    -87.1679711 -0.212160E-07  0.694E-04    1.74      18.4  T
  16    -87.1679711 -0.865906E-08  0.475E-04    1.74      26.9  T
  17    -87.1679711 -0.331551E-08  0.182E-04    1.74      70.5  T
  18    -87.1679711 -0.384446E-09  0.811E-05    1.74     158.0  T
  19    -87.1679711 -0.726317E-10  0.334E-05    1.74     383.7  T
  20    -87.1679711 -0.149782E-10  0.208E-05    1.74     614.5  T
     SCC iter.                  ...        0 min,  0.083 sec
     gradient                   ...        0 min,  0.014 sec
 * total energy  :   -85.6294862 Eh     change        0.3006370E+00 Eh
   gradient norm :     1.9229447 Eh/α   predicted    -0.7424728E-01 (-124.70%)
   displ. norm   :     0.3520187 α      lambda       -0.6272222E+00
   maximum displ.:     0.1815983 α      in ANC's #113, #127, #129, ...

........................................................................
.............................. CYCLE    5 ..............................
........................................................................
   1    -87.1571456 -0.871571E+02  0.550E-01    1.39       0.0  T
   2    -87.1579256 -0.780029E-03  0.496E-01    1.38       1.0  T
   3    -87.1582579 -0.332299E-03  0.240E-01    1.42       1.0  T
   4    -87.1564485  0.180945E-02  0.306E-01    1.36       1.0  T
   5    -87.1590196 -0.257113E-02  0.443E-02    1.41       1.0  T
   6    -87.1589788  0.408389E-04  0.375E-02    1.40       1.0  T
   7    -87.1590507 -0.719575E-04  0.191E-02    1.41       1.0  T
   8    -87.1590630 -0.122371E-04  0.576E-03    1.40       2.2  T
   9    -87.1590628  0.109373E-06  0.601E-03    1.40       2.1  T
  10    -87.1590635 -0.686223E-06  0.327E-03    1.40       3.9  T
  11    -87.1590637 -0.150331E-06  0.271E-03    1.40       4.7  T
  12    -87.1590638 -0.107889E-06  0.211E-03    1.40       6.1  T
  13    -87.1590639 -0.678875E-07  0.875E-04    1.40      14.6  T
  14    -87.1590639 -0.160416E-07  0.467E-04    1.40      27.4  T
  15    -87.1590639 -0.367795E-08  0.208E-04    1.40      61.6  T
  16    -87.1590639 -0.753658E-09  0.145E-04    1.40      88.6  T
  17    -87.1590639 -0.366725E-09  0.975E-05    1.40     131.3  T
  18    -87.1590639 -0.149640E-09  0.575E-05    1.40     222.5  T
  19    -87.1590639 -0.589893E-10  0.308E-05    1.40     415.4  T
  20    -87.1590639 -0.144524E-10  0.852E-06    1.40    1503.0  T
     SCC iter.                  ...        0 min,  0.082 sec
     gradient                   ...        0 min,  0.014 sec
 * total energy  :   -85.9167707 Eh     change       -0.2872845E+00 Eh
   gradient norm :     0.4877209 Eh/α   predicted    -0.3524727E+00 (  22.69%)
   displ. norm   :     0.8222738 α      lambda       -0.3278832E+00
   maximum displ.:     0.6118966 α      in ANC's #72, #118, #60, ...

........................................................................
.............................. CYCLE    6 ..............................
........................................................................
   1    -87.1052130 -0.871052E+02  0.160E+00    1.27       0.0  T
   2    -86.9824711  0.122742E+00  0.171E+00    1.63       1.0  T
   3    -87.0462528 -0.637817E-01  0.205E+00    1.31       1.0  T
   4    -87.1312486 -0.849958E-01  0.348E-01    1.50       1.0  T
   5    -87.1321924 -0.943810E-03  0.223E-01    1.49       1.0  T
   6    -87.1329193 -0.726923E-03  0.978E-02    1.52       1.0  T
   7    -87.1330022 -0.828925E-04  0.689E-02    1.52       1.0  T
   8    -87.1330346 -0.324264E-04  0.612E-02    1.52       1.0  T
   9    -87.1330819 -0.472553E-04  0.245E-02    1.52       1.0  T
  10    -87.1330900 -0.809613E-05  0.128E-02    1.52       1.0  T
  11    -87.1330930 -0.300522E-05  0.888E-03    1.52       1.4  T
  12    -87.1330935 -0.472211E-06  0.609E-03    1.52       2.1  T
  13    -87.1330939 -0.454992E-06  0.455E-03    1.53       2.8  T
  14    -87.1330945 -0.582966E-06  0.175E-03    1.52       7.3  T
  15    -87.1330946 -0.672435E-07  0.107E-03    1.52      12.0  T
  16    -87.1330946 -0.113067E-07  0.783E-04    1.52      16.3  T
  17    -87.1330946 -0.382248E-08  0.229E-04    1.52      55.9  T
  18    -87.1330946 -0.766676E-09  0.117E-04    1.52     109.4  T
  19    -87.1330946 -0.141583E-09  0.698E-05    1.52     183.5  T
  20    -87.1330946 -0.127145E-09  0.488E-05    1.52     262.1  T
  21    -87.1330946 -0.227942E-10  0.259E-05    1.52     495.2  T
     SCC iter.                  ...        0 min,  0.087 sec
     gradient                   ...        0 min,  0.014 sec
 * total energy  :   -85.5486439 Eh     change        0.3681268E+00 Eh
   gradient norm :     1.5238972 Eh/α   predicted    -0.2747885E+00 (-174.65%)
   displ. norm   :     0.4625939 α      lambda       -0.6919046E+00
   maximum displ.:     0.2034308 α      in ANC's #72, #118, #140, ...

........................................................................
.............................. CYCLE    7 ..............................
........................................................................
   1    -87.1557716 -0.871558E+02  0.829E-01    1.65       0.0  T
   2    -87.1124854  0.432862E-01  0.111E+00    1.34       1.0  T
   3    -87.1617697 -0.492844E-01  0.629E-01    1.56       1.0  T
   4    -87.1656727 -0.390294E-02  0.159E-01    1.52       1.0  T
   5    -87.1651991  0.473557E-03  0.173E-01    1.52       1.0  T
   6    -87.1657460 -0.546872E-03  0.438E-02    1.49       1.0  T
   7    -87.1657545 -0.852612E-05  0.332E-02    1.49       1.0  T
   8    -87.1657706 -0.161278E-04  0.215E-02    1.50       1.0  T
   9    -87.1657765 -0.582049E-05  0.147E-02    1.50       1.0  T
  10    -87.1657819 -0.546187E-05  0.812E-03    1.50       1.6  T
  11    -87.1657824 -0.464787E-06  0.189E-03    1.49       6.8  T
  12    -87.1657824 -0.382183E-07  0.106E-03    1.49      12.1  T
  13    -87.1657824 -0.910921E-08  0.733E-04    1.49      17.5  T
  14    -87.1657825 -0.590508E-08  0.414E-04    1.49      30.9  T
  15    -87.1657825 -0.394843E-08  0.321E-04    1.49      39.9  T
  16    -87.1657825 -0.218375E-08  0.153E-04    1.49      83.8  T
  17    -87.1657825 -0.428074E-09  0.725E-05    1.49     176.5  T
  18    -87.1657825 -0.572697E-10  0.515E-05    1.49     248.8  T
  19    -87.1657825 -0.379430E-10  0.190E-05    1.49     673.8  T
  20    -87.1657825 -0.495959E-11  0.128E-05    1.49    1003.3  T
     SCC iter.                  ...        0 min,  0.082 sec
     gradient                   ...        0 min,  0.014 sec
 * total energy  :   -85.8889641 Eh     change       -0.3403201E+00 Eh
   gradient norm :     0.5833126 Eh/α   predicted    -0.4199837E+00 (  23.41%)
   displ. norm   :     0.8319555 α      lambda       -0.4306346E+00
   maximum displ.:     0.7442175 α      in ANC's #72, #51, #127, ...

........................................................................
.............................. CYCLE    8 ..............................
........................................................................
   1    -87.1329305 -0.871329E+02  0.157E+00    1.55       0.0  T
   2    -87.0781776  0.547529E-01  0.156E+00    1.17       1.0  T
   3    -87.0644580  0.137196E-01  0.136E+00    1.62       1.0  T
   4    -87.1414963 -0.770383E-01  0.404E-01    1.38       1.0  T
   5    -87.1452149 -0.371865E-02  0.230E-01    1.44       1.0  T
   6    -87.1454684 -0.253434E-03  0.162E-01    1.43       1.0  T
   7    -87.1461283 -0.659912E-03  0.790E-02    1.41       1.0  T
   8    -87.1461411 -0.128163E-04  0.102E-01    1.42       1.0  T
   9    -87.1460894  0.516738E-04  0.675E-02    1.43       1.0  T
  10    -87.1462591 -0.169639E-03  0.113E-02    1.42       1.1  T
  11    -87.1462599 -0.836301E-06  0.811E-03    1.42       1.6  T
  12    -87.1462602 -0.307428E-06  0.390E-03    1.42       3.3  T
  13    -87.1462603 -0.139181E-06  0.242E-03    1.42       5.3  T
  14    -87.1462604 -0.771507E-07  0.189E-03    1.42       6.8  T
  15    -87.1462605 -0.947088E-07  0.117E-03    1.42      10.9  T
  16    -87.1462605 -0.190570E-07  0.782E-04    1.42      16.4  T
  17    -87.1462605 -0.699391E-08  0.530E-04    1.42      24.2  T
  18    -87.1462605 -0.171116E-08  0.244E-04    1.42      52.5  T
  19    -87.1462605 -0.570495E-09  0.121E-04    1.42     105.4  T
  20    -87.1462605 -0.183121E-09  0.338E-05    1.42     378.5  T
  21    -87.1462605 -0.825651E-11  0.124E-05    1.42    1032.8  T
     SCC iter.                  ...        0 min,  0.087 sec
     gradient                   ...        0 min,  0.014 sec
 * total energy  :   -85.6793389 Eh     change        0.2096251E+00 Eh
   gradient norm :     1.1997512 Eh/α   predicted    -0.3643494E+00 (-273.81%)
   displ. norm   :     0.4379627 α      lambda       -0.4638726E+00
   maximum displ.:     0.3749975 α      in ANC's #72, #127, #60, ...

........................................................................
.............................. CYCLE    9 ..............................
........................................................................
   1    -87.1638255 -0.871638E+02  0.560E-01    1.50       0.0  T
   2    -87.1562342  0.759124E-02  0.491E-01    1.64       1.0  T
   3    -87.1539519  0.228239E-02  0.616E-01    1.48       1.0  T
   4    -87.1653904 -0.114386E-01  0.172E-01    1.58       1.0  T
   5    -87.1655888 -0.198314E-03  0.126E-01    1.56       1.0  T
   6    -87.1659054 -0.316601E-03  0.554E-02    1.58       1.0  T
   7    -87.1659237 -0.183052E-04  0.327E-02    1.58       1.0  T
   8    -87.1659413 -0.176175E-04  0.195E-02    1.58       1.0  T
   9    -87.1659460 -0.467252E-05  0.120E-02    1.58       1.1  T
  10    -87.1659497 -0.374070E-05  0.384E-03    1.58       3.3  T
  11    -87.1659497 -0.345562E-07  0.261E-03    1.58       4.9  T
  12    -87.1659498 -0.865519E-07  0.782E-04    1.58      16.4  T
  13    -87.1659498 -0.173263E-08  0.525E-04    1.58      24.4  T
  14    -87.1659498 -0.349969E-08  0.174E-04    1.58      73.5  T
  15    -87.1659498 -0.295003E-09  0.101E-04    1.58     126.4  T
  16    -87.1659498 -0.123009E-09  0.647E-05    1.58     197.8  T
  17    -87.1659498 -0.703579E-10  0.483E-05    1.58     265.3  T
  18    -87.1659498 -0.448068E-10  0.325E-05    1.58     394.1  T
     SCC iter.                  ...        0 min,  0.075 sec
     gradient                   ...        0 min,  0.014 sec
 * total energy  :   -85.9463746 Eh     change       -0.2670357E+00 Eh
   gradient norm :     0.2480610 Eh/α   predicted    -0.2764242E+00 (   3.52%)
   displ. norm   :     0.6636786 α      lambda       -0.1165289E+00
   maximum displ.:     0.2935357 α      in ANC's #51, #73, #46, ...

........................................................................
.............................. CYCLE   10 ..............................
........................................................................
   1    -87.1568103 -0.871568E+02  0.613E-01    1.34       0.0  T
   2    -87.1505646  0.624569E-02  0.705E-01    1.28       1.0  T
   3    -87.1531979 -0.263321E-02  0.480E-01    1.40       1.0  T
   4    -87.1573882 -0.419032E-02  0.267E-01    1.31       1.0  T
   5    -87.1586800 -0.129182E-02  0.134E-01    1.33       1.0  T
   6    -87.1588771 -0.197068E-03  0.567E-02    1.34       1.0  T
   7    -87.1589112 -0.340906E-04  0.367E-02    1.34       1.0  T
   8    -87.1589267 -0.155500E-04  0.320E-02    1.34       1.0  T
   9    -87.1589494 -0.227141E-04  0.230E-02    1.34       1.0  T
  10    -87.1589420  0.746623E-05  0.195E-02    1.34       1.0  T
  11    -87.1589553 -0.133068E-04  0.943E-03    1.35       1.4  T
  12    -87.1589572 -0.195055E-05  0.261E-03    1.35       4.9  T
  13    -87.1589573 -0.655825E-07  0.185E-03    1.35       6.9  T
  14    -87.1589574 -0.718786E-07  0.139E-03    1.35       9.2  T
  15    -87.1589574 -0.298715E-07  0.661E-04    1.35      19.4  T
  16    -87.1589574 -0.288237E-08  0.463E-04    1.35      27.7  T
  17    -87.1589574 -0.264821E-08  0.129E-04    1.35      99.6  T
  18    -87.1589574 -0.270262E-09  0.749E-05    1.35     170.9  T
  19    -87.1589574 -0.671321E-10  0.377E-05    1.35     339.7  T
  20    -87.1589574 -0.228511E-10  0.189E-05    1.35     676.4  T
     SCC iter.                  ...        0 min,  0.085 sec
     gradient                   ...        0 min,  0.014 sec
 * total energy  :   -85.7106354 Eh     change        0.2357392E+00 Eh
   gradient norm :     1.0516232 Eh/α   predicted    -0.8392816E-01 (-135.60%)
   displ. norm   :     0.4228657 α      lambda       -0.4204508E+00
   maximum displ.:     0.2373827 α      in ANC's #104, #59, #51, ...

........................................................................
.............................. CYCLE   11 ..............................
........................................................................
   1    -87.1646571 -0.871647E+02  0.451E-01    1.41       0.0  T
   2    -87.1601490  0.450811E-02  0.524E-01    1.49       1.0  T
   3    -87.1638374 -0.368838E-02  0.356E-01    1.40       1.0  T
   4    -87.1654059 -0.156858E-02  0.274E-01    1.45       1.0  T
   5    -87.1655576 -0.151661E-03  0.114E-01    1.42       1.0  T
   6    -87.1660288 -0.471221E-03  0.323E-02    1.45       1.0  T
   7    -87.1660554 -0.265962E-04  0.206E-02    1.44       1.0  T
   8    -87.1660608 -0.533707E-05  0.135E-02    1.44       1.0  T
   9    -87.1660624 -0.160915E-05  0.120E-02    1.44       1.1  T
  10    -87.1660655 -0.312779E-05  0.632E-03    1.44       2.0  T
  11    -87.1660663 -0.805168E-06  0.392E-03    1.44       3.3  T
  12    -87.1660664 -0.151165E-06  0.206E-03    1.44       6.2  T
  13    -87.1660665 -0.961335E-07  0.139E-03    1.44       9.2  T
  14    -87.1660666 -0.550227E-07  0.448E-04    1.44      28.6  T
  15    -87.1660666 -0.236946E-08  0.332E-04    1.44      38.6  T
  16    -87.1660666 -0.158531E-08  0.195E-04    1.44      65.8  T
  17    -87.1660666 -0.122553E-08  0.815E-05    1.44     157.1  T
  18    -87.1660666 -0.978986E-10  0.363E-05    1.44     352.3  T
  19    -87.1660666 -0.214868E-10  0.182E-05    1.44     704.9  T
     SCC iter.                  ...        0 min,  0.079 sec
     gradient                   ...        0 min,  0.014 sec
 * total energy  :   -85.9233728 Eh     change       -0.2127374E+00 Eh
   gradient norm :     0.4628162 Eh/α   predicted    -0.2478170E+00 (  16.49%)
   displ. norm   :     0.7995925 α      lambda       -0.3183008E+00
   maximum displ.:     0.2998851 α      in ANC's #104, #73, #51, ...

........................................................................
.............................. CYCLE   12 ..............................
........................................................................
   1    -87.1257468 -0.871257E+02  0.711E-01    1.66       0.0  T
   2    -87.1201782  0.556860E-02  0.622E-01    1.72       1.0  T
   3    -87.1177204  0.245779E-02  0.661E-01    1.60       1.0  T
   4    -87.1287114 -0.109910E-01  0.316E-01    1.70       1.0  T
   5    -87.1289441 -0.232721E-03  0.128E-01    1.67       1.0  T
   6    -87.1290313 -0.871301E-04  0.834E-02    1.70       1.0  T
   7    -87.1292137 -0.182459E-03  0.463E-02    1.68       1.0  T
   8    -87.1292554 -0.416329E-04  0.312E-02    1.68       1.0  T
   9    -87.1292696 -0.142063E-04  0.298E-02    1.68       1.0  T
  10    -87.1292858 -0.162019E-04  0.176E-02    1.69       1.0  T
  11    -87.1292899 -0.414500E-05  0.845E-03    1.69       1.5  T
  12    -87.1292901 -0.169753E-06  0.639E-03    1.69       2.0  T
  13    -87.1292909 -0.834402E-06  0.304E-03    1.69       4.2  T
  14    -87.1292910 -0.105678E-06  0.135E-03    1.69       9.5  T
  15    -87.1292911 -0.250200E-07  0.784E-04    1.69      16.3  T
  16    -87.1292911 -0.124526E-07  0.426E-04    1.69      30.0  T
  17    -87.1292911 -0.303686E-08  0.238E-04    1.69      53.8  T
  18    -87.1292911 -0.423455E-09  0.144E-04    1.69      89.2  T
  19    -87.1292911 -0.269495E-09  0.372E-05    1.69     344.0  T
  20    -87.1292911 -0.183888E-10  0.156E-05    1.69     819.4  T
     SCC iter.                  ...        0 min,  0.083 sec
     gradient                   ...        0 min,  0.014 sec
 * total energy  :   -85.5990918 Eh     change        0.3242810E+00 Eh
   gradient norm :     1.3646420 Eh/α   predicted    -0.2609026E+00 (-180.46%)
   displ. norm   :     0.4484142 α      lambda       -0.5595458E+00
   maximum displ.:     0.1683496 α      in ANC's #104, #51, #73, ...

........................................................................
.............................. CYCLE   13 ..............................
........................................................................
   1    -87.1544384 -0.871544E+02  0.485E-01    1.61       0.0  T
   2    -87.1513115  0.312686E-02  0.406E-01    1.56       1.0  T
   3    -87.1481729  0.313859E-02  0.508E-01    1.67       1.0  T
   4    -87.1559448 -0.777191E-02  0.193E-01    1.60       1.0  T
   5    -87.1559885 -0.437046E-04  0.110E-01    1.60       1.0  T
   6    -87.1560544 -0.658970E-04  0.408E-02    1.59       1.0  T
   7    -87.1560799 -0.254942E-04  0.278E-02    1.60       1.0  T
   8    -87.1560900 -0.100847E-04  0.187E-02    1.60       1.0  T
   9    -87.1560931 -0.308451E-05  0.155E-02    1.60       1.0  T
  10    -87.1560985 -0.539413E-05  0.765E-03    1.60       1.7  T
  11    -87.1560993 -0.786726E-06  0.487E-03    1.60       2.6  T
  12    -87.1560991  0.219547E-06  0.411E-03    1.60       3.1  T
  13    -87.1560996 -0.545481E-06  0.190E-03    1.60       6.7  T
  14    -87.1560997 -0.537033E-07  0.787E-04    1.60      16.3  T
  15    -87.1560997 -0.824545E-08  0.577E-04    1.60      22.2  T
  16    -87.1560997 -0.554627E-08  0.283E-04    1.60      45.2  T
  17    -87.1560997 -0.181116E-08  0.934E-05    1.60     137.1  T
  18    -87.1560997 -0.104976E-09  0.651E-05    1.60     196.6  T
  19    -87.1560997 -0.138414E-10  0.388E-05    1.60     330.1  T
  20    -87.1560997 -0.169393E-10  0.126E-05    1.60    1015.2  T
     SCC iter.                  ...        0 min,  0.082 sec
     gradient                   ...        0 min,  0.014 sec
 * total energy  :   -85.9096511 Eh     change       -0.3105593E+00 Eh
   gradient norm :     0.4539071 Eh/α   predicted    -0.3360287E+00 (   8.20%)
   displ. norm   :     0.8022550 α      lambda       -0.3418967E+00
   maximum displ.:     0.4005890 α      in ANC's #55, #71, #104, ...

........................................................................
.............................. CYCLE   14 ..............................
........................................................................
   1    -87.1457152 -0.871457E+02  0.793E-01    1.47       0.0  T
   2    -87.1360995  0.961567E-02  0.878E-01    1.37       1.0  T
   3    -87.1401061 -0.400660E-02  0.639E-01    1.52       1.0  T
   4    -87.1479352 -0.782910E-02  0.278E-01    1.42       1.0  T
   5    -87.1481151 -0.179886E-03  0.186E-01    1.46       1.0  T
   6    -87.1487203 -0.605171E-03  0.290E-02    1.44       1.0  T
   7    -87.1487250 -0.474752E-05  0.208E-02    1.44       1.0  T
   8    -87.1487306 -0.554190E-05  0.148E-02    1.44       1.0  T
   9    -87.1487338 -0.317990E-05  0.121E-02    1.44       1.1  T
  10    -87.1487347 -0.938068E-06  0.900E-03    1.44       1.4  T
  11    -87.1487367 -0.199806E-05  0.501E-03    1.44       2.6  T
  12    -87.1487374 -0.667011E-06  0.272E-03    1.44       4.7  T
  13    -87.1487374 -0.265723E-07  0.238E-03    1.44       5.4  T
  14    -87.1487375 -0.919652E-07  0.768E-04    1.44      16.7  T
  15    -87.1487375 -0.166239E-09  0.736E-04    1.44      17.4  T
  16    -87.1487375 -0.100941E-07  0.335E-04    1.44      38.2  T
  17    -87.1487375 -0.308030E-08  0.178E-04    1.44      72.1  T
  18    -87.1487375 -0.656442E-09  0.838E-05    1.44     152.8  T
  19    -87.1487375  0.416946E-10  0.507E-05    1.44     252.6  T
  20    -87.1487375 -0.117339E-09  0.121E-05    1.44    1056.7  T
  21    -87.1487375 -0.358114E-11  0.701E-06    1.44    1826.9  T
     SCC iter.                  ...        0 min,  0.087 sec
     gradient                   ...        0 min,  0.014 sec
 * total energy  :   -85.6250787 Eh     change        0.2845724E+00 Eh
   gradient norm :     1.2784010 Eh/α   predicted    -0.2809730E+00 (-198.74%)
   displ. norm   :     0.4485073 α      lambda       -0.5624328E+00
   maximum displ.:     0.1886528 α      in ANC's #104, #119, #55, ...

........................................................................
.............................. CYCLE   15 ..............................
........................................................................
   1    -87.1611321 -0.871611E+02  0.471E-01    1.51       0.0  T
   2    -87.1591755  0.195658E-02  0.461E-01    1.56       1.0  T
   3    -87.1598097 -0.634179E-03  0.314E-01    1.49       1.0  T
   4    -87.1615104 -0.170068E-02  0.183E-01    1.54       1.0  T
   5    -87.1618984 -0.387983E-03  0.989E-02    1.53       1.0  T
   6    -87.1619582 -0.597843E-04  0.326E-02    1.53       1.0  T
   7    -87.1619872 -0.289854E-04  0.107E-02    1.53       1.2  T
   8    -87.1619900 -0.281256E-05  0.547E-03    1.53       2.3  T
   9    -87.1619903 -0.375226E-06  0.429E-03    1.53       3.0  T
  10    -87.1619904 -0.178275E-07  0.383E-03    1.53       3.3  T
  11    -87.1619907 -0.337881E-06  0.183E-03    1.53       7.0  T
  12    -87.1619907 -0.387330E-07  0.160E-03    1.53       8.0  T
  13    -87.1619908 -0.432344E-07  0.104E-03    1.53      12.3  T
  14    -87.1619908 -0.182513E-07  0.311E-04    1.53      41.2  T
  15    -87.1619908 -0.152792E-08  0.186E-04    1.53      68.8  T
  16    -87.1619908 -0.207407E-09  0.157E-04    1.53      81.8  T
  17    -87.1619908 -0.735000E-09  0.667E-05    1.53     191.8  T
  18    -87.1619908 -0.666205E-10  0.305E-05    1.53     420.4  T
  19    -87.1619908 -0.996181E-11  0.147E-05    1.53     871.5  T
     SCC iter.                  ...        0 min,  0.079 sec
     gradient                   ...        0 min,  0.014 sec
 * total energy  :   -85.9363385 Eh     change       -0.3112598E+00 Eh
   gradient norm :     0.3132221 Eh/α   predicted    -0.3377857E+00 (   8.52%)
   displ. norm   :     0.7350560 α      lambda       -0.1932550E+00
   maximum displ.:     0.3357041 α      in ANC's #55, #71, #59, ...

........................................................................
.............................. CYCLE   16 ..............................
........................................................................
   1    -87.1459946 -0.871460E+02  0.481E-01    1.49       0.0  T
   2    -87.1456583  0.336263E-03  0.335E-01    1.48       1.0  T
   3    -87.1432899  0.236845E-02  0.382E-01    1.45       1.0  T
   4    -87.1455886 -0.229877E-02  0.258E-01    1.50       1.0  T
   5    -87.1463420 -0.753310E-03  0.120E-01    1.47       1.0  T
   6    -87.1466077 -0.265734E-03  0.326E-02    1.48       1.0  T
   7    -87.1466292 -0.214860E-04  0.131E-02    1.48       1.0  T
   8    -87.1466311 -0.188350E-05  0.100E-02    1.48       1.3  T
   9    -87.1466319 -0.803980E-06  0.723E-03    1.48       1.8  T
  10    -87.1466325 -0.636617E-06  0.494E-03    1.48       2.6  T
  11    -87.1466330 -0.449118E-06  0.152E-03    1.48       8.4  T
  12    -87.1466329  0.304966E-07  0.150E-03    1.48       8.5  T
  13    -87.1466330 -0.566348E-07  0.428E-04    1.48      29.9  T
  14    -87.1466330 -0.748841E-09  0.389E-04    1.48      32.9  T
  15    -87.1466330 -0.187413E-08  0.103E-04    1.48     124.2  T
  16    -87.1466330 -0.126533E-09  0.716E-05    1.48     178.8  T
  17    -87.1466330 -0.889031E-10  0.538E-05    1.48     238.0  T
  18    -87.1466330 -0.647162E-10  0.370E-05    1.48     346.5  T
  19    -87.1466330 -0.339782E-10  0.160E-05    1.48     801.4  T
     SCC iter.                  ...        0 min,  0.079 sec
     gradient                   ...        0 min,  0.014 sec
 * total energy  :   -85.6493366 Eh     change        0.2870019E+00 Eh
   gradient norm :     1.3793874 Eh/α   predicted    -0.1488360E+00 (-151.86%)
   displ. norm   :     0.4149603 α      lambda       -0.5469704E+00
   maximum displ.:     0.2010436 α      in ANC's #153, #119, #71, ...

........................................................................
.............................. CYCLE   17 ..............................
........................................................................
   1    -87.1649017 -0.871649E+02  0.422E-01    1.48       0.0  T
   2    -87.1650650 -0.163315E-03  0.340E-01    1.51       1.0  T
   3    -87.1652471 -0.182060E-03  0.160E-01    1.48       1.0  T
   4    -87.1644468  0.800289E-03  0.203E-01    1.52       1.0  T
   5    -87.1651974 -0.750644E-03  0.962E-02    1.48       1.0  T
   6    -87.1654950 -0.297615E-03  0.164E-02    1.49       1.0  T
   7    -87.1654973 -0.224413E-05  0.752E-03    1.49       1.7  T
   8    -87.1654977 -0.379590E-06  0.563E-03    1.49       2.3  T
   9    -87.1654980 -0.324742E-06  0.524E-03    1.49       2.4  T
  10    -87.1654983 -0.290129E-06  0.314E-03    1.49       4.1  T
  11    -87.1654986 -0.267249E-06  0.988E-04    1.49      13.0  T
  12    -87.1654986 -0.980310E-08  0.761E-04    1.49      16.8  T
  13    -87.1654986 -0.101093E-07  0.389E-04    1.49      32.9  T
  14    -87.1654986 -0.211467E-08  0.281E-04    1.49      45.5  T
  15    -87.1654986 -0.108946E-08  0.235E-04    1.49      54.6  T
  16    -87.1654986 -0.752877E-09  0.100E-04    1.49     127.4  T
  17    -87.1654986 -0.254559E-09  0.610E-05    1.49     210.0  T
  18    -87.1654986 -0.102077E-09  0.221E-05    1.49     579.8  T
  19    -87.1654986 -0.291323E-11  0.159E-05    1.49     803.6  T
     SCC iter.                  ...        0 min,  0.079 sec
     gradient                   ...        0 min,  0.014 sec
 * total energy  :   -85.9423334 Eh     change       -0.2929968E+00 Eh
   gradient norm :     0.2399490 Eh/α   predicted    -0.3205773E+00 (   9.41%)
   displ. norm   :     0.6994717 α      lambda       -0.1076676E+00
   maximum displ.:     0.2700086 α      in ANC's #31, #33, #30, ...

........................................................................
.............................. CYCLE   18 ..............................
........................................................................
   1    -87.1673516 -0.871674E+02  0.621E-01    1.65       0.0  T
   2    -87.1678496 -0.498043E-03  0.501E-01    1.62       1.0  T
   3    -87.1686398 -0.790227E-03  0.121E-01    1.63       1.0  T
   4    -87.1686097  0.300826E-04  0.874E-02    1.62       1.0  T
   5    -87.1686527 -0.429803E-04  0.387E-02    1.63       1.0  T
   6    -87.1686479  0.485224E-05  0.290E-02    1.62       1.0  T
   7    -87.1686689 -0.210149E-04  0.204E-02    1.62       1.0  T
   8    -87.1686749 -0.597351E-05  0.136E-02    1.62       1.0  T
   9    -87.1686774 -0.248932E-05  0.109E-02    1.62       1.2  T
  10    -87.1686805 -0.316100E-05  0.436E-03    1.62       2.9  T
  11    -87.1686807 -0.203328E-06  0.329E-03    1.62       3.9  T
  12    -87.1686808 -0.105345E-06  0.203E-03    1.62       6.3  T
  13    -87.1686809 -0.462195E-07  0.128E-03    1.62      10.0  T
  14    -87.1686809 -0.230661E-07  0.746E-04    1.62      17.2  T
  15    -87.1686809 -0.145879E-07  0.471E-04    1.62      27.2  T
  16    -87.1686809 -0.333448E-08  0.297E-04    1.62      43.2  T
  17    -87.1686809 -0.190924E-08  0.902E-05    1.62     142.0  T
  18    -87.1686809 -0.101906E-09  0.449E-05    1.62     285.5  T
  19    -87.1686809 -0.315907E-10  0.202E-05    1.62     633.0  T
     SCC iter.                  ...        0 min,  0.079 sec
     gradient                   ...        0 min,  0.014 sec
 * total energy  :   -85.8903034 Eh     change        0.5202999E-01 Eh
   gradient norm :     0.4645245 Eh/α   predicted    -0.8017256E-01 (-254.09%)
   displ. norm   :     0.4256547 α      lambda       -0.1384521E+00
   maximum displ.:     0.1817208 α      in ANC's #40, #73, #33, ...

........................................................................
.............................. CYCLE   19 ..............................
........................................................................
   1    -87.1701227 -0.871701E+02  0.313E-01    1.47       0.0  T
   2    -87.1699732  0.149446E-03  0.272E-01    1.47       1.0  T
   3    -87.1699527  0.204699E-04  0.157E-01    1.50       1.0  T
   4    -87.1700694 -0.116695E-03  0.129E-01    1.47       1.0  T
   5    -87.1704721 -0.402633E-03  0.545E-02    1.48       1.0  T
   6    -87.1705174 -0.453493E-04  0.325E-02    1.49       1.0  T
   7    -87.1705282 -0.107366E-04  0.205E-02    1.49       1.0  T
   8    -87.1705342 -0.606166E-05  0.172E-02    1.49       1.0  T
   9    -87.1705386 -0.439411E-05  0.114E-02    1.49       1.1  T
  10    -87.1705436 -0.498941E-05  0.337E-03    1.49       3.8  T
  11    -87.1705438 -0.242602E-06  0.289E-03    1.49       4.4  T
  12    -87.1705439 -0.621838E-07  0.143E-03    1.49       8.9  T
  13    -87.1705439 -0.161974E-07  0.103E-03    1.49      12.4  T
  14    -87.1705439 -0.139992E-07  0.577E-04    1.49      22.2  T
  15    -87.1705439 -0.614889E-08  0.216E-04    1.49      59.2  T
  16    -87.1705439 -0.548511E-09  0.171E-04    1.49      74.8  T
  17    -87.1705439 -0.412143E-09  0.588E-05    1.49     217.7  T
  18    -87.1705439 -0.410552E-10  0.211E-05    1.49     605.4  T
  19    -87.1705439 -0.268585E-11  0.955E-06    1.49    1341.1  T
     SCC iter.                  ...        0 min,  0.079 sec
     gradient                   ...        0 min,  0.014 sec
 * total energy  :   -85.9538001 Eh     change       -0.6349662E-01 Eh
   gradient norm :     0.1461271 Eh/α   predicted    -0.8176864E-01 (  28.78%)
   displ. norm   :     0.7392604 α      lambda       -0.7361585E-01
   maximum displ.:     0.3724158 α      in ANC's #31, #30, #32, ...

........................................................................
.............................. CYCLE   20 ..............................
........................................................................
   1    -87.1628348 -0.871628E+02  0.814E-01    1.57       0.0  T
   2    -87.1623125  0.522309E-03  0.682E-01    1.59       1.0  T
   3    -87.1633202 -0.100769E-02  0.290E-01    1.53       1.0  T
   4    -87.1649994 -0.167921E-02  0.172E-01    1.59       1.0  T
   5    -87.1652879 -0.288523E-03  0.763E-02    1.58       1.0  T
   6    -87.1654956 -0.207691E-03  0.305E-02    1.57       1.0  T
   7    -87.1655037 -0.813439E-05  0.229E-02    1.57       1.0  T
   8    -87.1655098 -0.606323E-05  0.185E-02    1.57       1.0  T
   9    -87.1655113 -0.153542E-05  0.177E-02    1.57       1.0  T
  10    -87.1655218 -0.104334E-04  0.795E-03    1.57       1.6  T
  11    -87.1655223 -0.548055E-06  0.453E-03    1.57       2.8  T
  12    -87.1655222  0.111271E-06  0.427E-03    1.57       3.0  T
  13    -87.1655226 -0.439279E-06  0.988E-04    1.57      13.0  T
  14    -87.1655226 -0.838706E-08  0.690E-04    1.57      18.6  T
  15    -87.1655226 -0.475275E-08  0.385E-04    1.57      33.2  T
  16    -87.1655226 -0.174518E-08  0.242E-04    1.57      53.0  T
  17    -87.1655226 -0.107167E-08  0.947E-05    1.57     135.2  T
  18    -87.1655226 -0.169976E-09  0.433E-05    1.57     295.6  T
  19    -87.1655226 -0.233200E-10  0.219E-05    1.57     584.3  T
     SCC iter.                  ...        0 min,  0.079 sec
     gradient                   ...        0 min,  0.014 sec
 * total energy  :   -85.8947180 Eh     change        0.5908201E-01 Eh
   gradient norm :     0.4170761 Eh/α   predicted    -0.5692374E-01 (-196.35%)
   displ. norm   :     0.3723456 α      lambda       -0.1237911E+00
   maximum displ.:     0.1239696 α      in ANC's #30, #55, #35, ...

........................................................................
.............................. CYCLE   21 ..............................
........................................................................
   1    -87.1769220 -0.871769E+02  0.435E-01    1.51       0.0  T
   2    -87.1768338  0.882102E-04  0.378E-01    1.50       1.0  T
   3    -87.1773467 -0.512842E-03  0.178E-01    1.53       1.0  T
   4    -87.1772494  0.972439E-04  0.184E-01    1.49       1.0  T
   5    -87.1780129 -0.763471E-03  0.433E-02    1.50       1.0  T
   6    -87.1780449 -0.319911E-04  0.285E-02    1.50       1.0  T
   7    -87.1780493 -0.443147E-05  0.161E-02    1.50       1.0  T
   8    -87.1780513 -0.198879E-05  0.156E-02    1.50       1.0  T
   9    -87.1780540 -0.273740E-05  0.102E-02    1.50       1.3  T
  10    -87.1780553 -0.125127E-05  0.838E-03    1.50       1.5  T
  11    -87.1780568 -0.149341E-05  0.407E-03    1.50       3.1  T
  12    -87.1780570 -0.229154E-06  0.278E-03    1.50       4.6  T
  13    -87.1780571 -0.995504E-07  0.177E-03    1.50       7.2  T
  14    -87.1780572 -0.614308E-07  0.601E-04    1.50      21.3  T
  15    -87.1780572 -0.347343E-08  0.508E-04    1.50      25.2  T
  16    -87.1780572 -0.421778E-08  0.260E-04    1.50      49.2  T
  17    -87.1780572 -0.141215E-08  0.137E-04    1.50      93.6  T
  18    -87.1780572 -0.478806E-09  0.443E-05    1.50     288.9  T
  19    -87.1780572 -0.379003E-10  0.205E-05    1.50     624.9  T
     SCC iter.                  ...        0 min,  0.079 sec
     gradient                   ...        0 min,  0.014 sec
 * total energy  :   -85.9557589 Eh     change       -0.6104080E-01 Eh
   gradient norm :     0.1555782 Eh/α   predicted    -0.7047680E-01 (  15.46%)
   displ. norm   :     0.6391611 α      lambda       -0.5247464E-01
   maximum displ.:     0.4300896 α      in ANC's #31, #30, #29, ...

........................................................................
.............................. CYCLE   22 ..............................
........................................................................
   1    -87.1704034 -0.871704E+02  0.804E-01    1.55       0.0  T
   2    -87.1702457  0.157708E-03  0.668E-01    1.56       1.0  T
   3    -87.1714341 -0.118839E-02  0.221E-01    1.52       1.0  T
   4    -87.1724296 -0.995522E-03  0.135E-01    1.56       1.0  T
   5    -87.1726381 -0.208510E-03  0.540E-02    1.56       1.0  T
   6    -87.1727421 -0.104003E-03  0.226E-02    1.55       1.0  T
   7    -87.1727592 -0.171126E-04  0.103E-02    1.56       1.2  T
   8    -87.1727591  0.154616E-06  0.764E-03    1.56       1.7  T
   9    -87.1727597 -0.652317E-06  0.684E-03    1.55       1.9  T
  10    -87.1727605 -0.786327E-06  0.273E-03    1.56       4.7  T
  11    -87.1727606 -0.881626E-07  0.227E-03    1.56       5.6  T
  12    -87.1727606 -0.285053E-07  0.152E-03    1.56       8.4  T
  13    -87.1727606 -0.315335E-07  0.555E-04    1.56      23.1  T
  14    -87.1727606 -0.300049E-08  0.195E-04    1.56      65.5  T
  15    -87.1727606 -0.519321E-09  0.720E-05    1.56     177.7  T
  16    -87.1727606 -0.765112E-10  0.395E-05    1.56     324.1  T
  17    -87.1727606 -0.168114E-10  0.291E-05    1.56     439.7  T
     SCC iter.                  ...        0 min,  0.071 sec
     gradient                   ...        0 min,  0.014 sec
 * total energy  :   -85.9353969 Eh     change        0.2036190E-01 Eh
   gradient norm :     0.2659734 Eh/α   predicted    -0.3695585E-01 (-281.50%)
   displ. norm   :     0.3578741 α      lambda       -0.5685088E-01
   maximum displ.:     0.1999355 α      in ANC's #31, #35, #32, ...

........................................................................
.............................. CYCLE   23 ..............................
........................................................................
   1    -87.1761890 -0.871762E+02  0.456E-01    1.54       0.0  T
   2    -87.1762838 -0.948469E-04  0.386E-01    1.52       1.0  T
   3    -87.1767082 -0.424345E-03  0.115E-01    1.55       1.0  T
   4    -87.1767596 -0.514252E-04  0.971E-02    1.52       1.0  T
   5    -87.1769363 -0.176705E-03  0.394E-02    1.53       1.0  T
   6    -87.1769584 -0.220410E-04  0.164E-02    1.53       1.0  T
   7    -87.1769602 -0.181443E-05  0.640E-03    1.53       2.0  T
   8    -87.1769605 -0.275349E-06  0.370E-03    1.53       3.5  T
   9    -87.1769603  0.145689E-06  0.318E-03    1.53       4.0  T
  10    -87.1769604 -0.123274E-06  0.275E-03    1.53       4.7  T
  11    -87.1769607 -0.257593E-06  0.114E-03    1.53      11.2  T
  12    -87.1769607 -0.276935E-07  0.585E-04    1.53      21.9  T
  13    -87.1769607 -0.335994E-08  0.543E-04    1.53      23.6  T
  14    -87.1769607 -0.294534E-08  0.213E-04    1.53      60.0  T
  15    -87.1769607 -0.779252E-09  0.133E-04    1.53      96.4  T
  16    -87.1769607 -0.235161E-09  0.106E-04    1.53     120.3  T
  17    -87.1769607 -0.249671E-09  0.708E-05    1.53     180.9  T
  18    -87.1769607 -0.108500E-09  0.311E-05    1.53     411.9  T
  19    -87.1769607 -0.130029E-10  0.167E-05    1.53     764.8  T
     SCC iter.                  ...        0 min,  0.079 sec
     gradient                   ...        0 min,  0.014 sec
 * total energy  :   -85.9604103 Eh     change       -0.2501335E-01 Eh
   gradient norm :     0.1016570 Eh/α   predicted    -0.3206613E-01 (  28.20%)
   displ. norm   :     0.6512315 α      lambda       -0.4435932E-01
   maximum displ.:     0.3641918 α      in ANC's #35, #31, #33, ...

........................................................................
.............................. CYCLE   24 ..............................
........................................................................
   1    -87.1688483 -0.871688E+02  0.515E-01    1.53       0.0  T
   2    -87.1689562 -0.107902E-03  0.464E-01    1.50       1.0  T
   3    -87.1698598 -0.903549E-03  0.104E-01    1.52       1.0  T
   4    -87.1678925  0.196726E-02  0.223E-01    1.48       1.0  T
   5    -87.1699830 -0.209054E-02  0.462E-02    1.51       1.0  T
   6    -87.1699918 -0.880017E-05  0.207E-02    1.51       1.0  T
   7    -87.1699933 -0.149794E-05  0.187E-02    1.51       1.0  T
   8    -87.1699980 -0.470787E-05  0.113E-02    1.51       1.1  T
   9    -87.1699995 -0.141830E-05  0.546E-03    1.51       2.3  T
  10    -87.1699998 -0.323308E-06  0.286E-03    1.51       4.5  T
  11    -87.1699999 -0.142999E-06  0.139E-03    1.51       9.2  T
  12    -87.1700000 -0.280617E-07  0.620E-04    1.51      20.7  T
  13    -87.1700000 -0.531979E-08  0.334E-04    1.51      38.4  T
  14    -87.1700000 -0.134995E-08  0.239E-04    1.51      53.6  T
  15    -87.1700000 -0.790777E-09  0.156E-04    1.51      82.3  T
  16    -87.1700000 -0.420371E-09  0.141E-04    1.51      90.9  T
  17    -87.1700000 -0.366299E-09  0.676E-05    1.51     189.3  T
  18    -87.1700000 -0.718074E-10  0.287E-05    1.51     445.9  T
  19    -87.1700000 -0.102887E-10  0.223E-05    1.51     574.9  T
     SCC iter.                  ...        0 min,  0.079 sec
     gradient                   ...        0 min,  0.014 sec
 * total energy  :   -85.9082926 Eh     change        0.5211772E-01 Eh
   gradient norm :     0.4295072 Eh/α   predicted    -0.3158635E-01 (-160.61%)
   displ. norm   :     0.3342388 α      lambda       -0.1001094E+00
   maximum displ.:     0.1664782 α      in ANC's #72, #35, #33, ...

........................................................................
.............................. CYCLE   25 ..............................
........................................................................
   1    -87.1788209 -0.871788E+02  0.374E-01    1.42       0.0  T
   2    -87.1777971  0.102386E-02  0.254E-01    1.48       1.0  T
   3    -87.1765747  0.122241E-02  0.294E-01    1.41       1.0  T
   4    -87.1794243 -0.284960E-02  0.852E-02    1.45       1.0  T
   5    -87.1794918 -0.675326E-04  0.338E-02    1.45       1.0  T
   6    -87.1794889  0.285689E-05  0.318E-02    1.45       1.0  T
   7    -87.1795070 -0.180655E-04  0.141E-02    1.45       1.0  T
   8    -87.1795090 -0.194769E-05  0.117E-02    1.45       1.1  T
   9    -87.1795105 -0.156248E-05  0.691E-03    1.45       1.9  T
  10    -87.1795112 -0.675683E-06  0.239E-03    1.45       5.4  T
  11    -87.1795113 -0.899806E-07  0.112E-03    1.45      11.4  T
  12    -87.1795113 -0.234181E-07  0.577E-04    1.45      22.2  T
  13    -87.1795113 -0.322392E-08  0.422E-04    1.45      30.3  T
  14    -87.1795113 -0.306866E-08  0.311E-04    1.45      41.2  T
  15    -87.1795113 -0.253563E-08  0.177E-04    1.45      72.5  T
  16    -87.1795113 -0.621981E-09  0.121E-04    1.45     106.1  T
  17    -87.1795113 -0.365546E-09  0.565E-05    1.45     226.6  T
  18    -87.1795113 -0.613625E-10  0.241E-05    1.45     530.8  T
  19    -87.1795113 -0.463274E-11  0.171E-05    1.45     748.3  T
     SCC iter.                  ...        0 min,  0.079 sec
     gradient                   ...        0 min,  0.014 sec
 * total energy  :   -85.9599878 Eh     change       -0.5169526E-01 Eh
   gradient norm :     0.1044460 Eh/α   predicted    -0.5564602E-01 (   7.64%)
   displ. norm   :     0.5622890 α      lambda       -0.3833065E-01
   maximum displ.:     0.2811066 α      in ANC's #35, #31, #14, ...

........................................................................
.............................. CYCLE   26 ..............................
........................................................................
   1    -87.1712228 -0.871712E+02  0.458E-01    1.84       0.0  T
   2    -87.1702024  0.102043E-02  0.426E-01    1.84       1.0  T
   3    -87.1714734 -0.127105E-02  0.218E-01    1.79       1.0  T
   4    -87.1726104 -0.113699E-02  0.134E-01    1.83       1.0  T
   5    -87.1726728 -0.623945E-04  0.836E-02    1.83       1.0  T
   6    -87.1728450 -0.172220E-03  0.458E-02    1.82       1.0  T
   7    -87.1728736 -0.285560E-04  0.165E-02    1.81       1.0  T
   8    -87.1728753 -0.167660E-05  0.151E-02    1.81       1.0  T
   9    -87.1728776 -0.237371E-05  0.628E-03    1.81       2.0  T
  10    -87.1728782 -0.558235E-06  0.503E-03    1.81       2.5  T
  11    -87.1728785 -0.343162E-06  0.150E-03    1.81       8.5  T
  12    -87.1728785 -0.180999E-07  0.954E-04    1.81      13.4  T
  13    -87.1728786 -0.676421E-08  0.515E-04    1.81      24.9  T
  14    -87.1728786 -0.526576E-08  0.293E-04    1.81      43.7  T
  15    -87.1728786 -0.151742E-08  0.212E-04    1.81      60.5  T
  16    -87.1728786 -0.640242E-09  0.169E-04    1.81      75.7  T
  17    -87.1728786 -0.795495E-09  0.810E-05    1.81     158.0  T
  18    -87.1728786 -0.130811E-09  0.369E-05    1.81     347.1  T
  19    -87.1728786 -0.251390E-10  0.195E-05    1.81     656.4  T
     SCC iter.                  ...        0 min,  0.079 sec
     gradient                   ...        0 min,  0.014 sec
 * total energy  :   -85.9014175 Eh     change        0.5857034E-01 Eh
   gradient norm :     0.4668734 Eh/α   predicted    -0.2522601E-01 (-143.07%)
   displ. norm   :     0.3176058 α      lambda       -0.1245879E+00
   maximum displ.:     0.1357742 α      in ANC's #98, #35, #121, ...

........................................................................
.............................. CYCLE   27 ..............................
........................................................................
   1    -87.1767119 -0.871767E+02  0.409E-01    1.56       0.0  T
   2    -87.1718887  0.482328E-02  0.468E-01    1.52       1.0  T
   3    -87.1743490 -0.246033E-02  0.375E-01    1.62       1.0  T
   4    -87.1777843 -0.343535E-02  0.122E-01    1.58       1.0  T
   5    -87.1775621  0.222248E-03  0.120E-01    1.56       1.0  T
   6    -87.1779655 -0.403418E-03  0.448E-02    1.57       1.0  T
   7    -87.1780007 -0.352382E-04  0.142E-02    1.58       1.0  T
   8    -87.1780014 -0.689261E-06  0.135E-02    1.58       1.0  T
   9    -87.1780038 -0.239021E-05  0.524E-03    1.58       2.4  T
  10    -87.1780038 -0.196679E-07  0.502E-03    1.58       2.6  T
  11    -87.1780043 -0.486132E-06  0.140E-03    1.58       9.1  T
  12    -87.1780043 -0.184834E-07  0.985E-04    1.58      13.0  T
  13    -87.1780044 -0.433232E-09  0.565E-04    1.58      22.7  T
  14    -87.1780044 -0.100984E-07  0.306E-04    1.58      41.8  T
  15    -87.1780044 -0.164667E-08  0.250E-04    1.58      51.3  T
  16    -87.1780044 -0.100654E-08  0.162E-04    1.58      79.2  T
  17    -87.1780044 -0.734701E-09  0.637E-05    1.58     201.1  T
  18    -87.1780044 -0.621014E-10  0.318E-05    1.58     402.5  T
  19    -87.1780044 -0.312355E-10  0.102E-05    1.58    1252.5  T
     SCC iter.                  ...        0 min,  0.079 sec
     gradient                   ...        0 min,  0.014 sec
 * total energy  :   -85.9607983 Eh     change       -0.5938080E-01 Eh
   gradient norm :     0.1045735 Eh/α   predicted    -0.6857299E-01 (  15.48%)
   displ. norm   :     0.5900652 α      lambda       -0.3241518E-01
   maximum displ.:     0.2029347 α      in ANC's #31, #40, #36, ...

........................................................................
.............................. CYCLE   28 ..............................
........................................................................
   1    -87.1839583 -0.871840E+02  0.438E-01    1.50       0.0  T
   2    -87.1841521 -0.193833E-03  0.376E-01    1.50       1.0  T
   3    -87.1846300 -0.477950E-03  0.985E-02    1.49       1.0  T
   4    -87.1844500  0.180082E-03  0.103E-01    1.51       1.0  T
   5    -87.1844430  0.699316E-05  0.848E-02    1.48       1.0  T
   6    -87.1846983 -0.255297E-03  0.150E-02    1.50       1.0  T
   7    -87.1846992 -0.972040E-06  0.108E-02    1.50       1.2  T
   8    -87.1847006 -0.139852E-05  0.848E-03    1.50       1.5  T
   9    -87.1847013 -0.685055E-06  0.779E-03    1.50       1.6  T
  10    -87.1847024 -0.106064E-05  0.282E-03    1.50       4.5  T
  11    -87.1847025 -0.115287E-06  0.209E-03    1.50       6.1  T
  12    -87.1847025 -0.542665E-07  0.921E-04    1.50      13.9  T
  13    -87.1847026 -0.896152E-08  0.730E-04    1.50      17.5  T
  14    -87.1847026 -0.106191E-07  0.427E-04    1.50      30.0  T
  15    -87.1847026 -0.377065E-08  0.300E-04    1.50      42.6  T
  16    -87.1847026 -0.208873E-08  0.165E-04    1.50      77.6  T
  17    -87.1847026 -0.174225E-09  0.112E-04    1.50     114.8  T
  18    -87.1847026 -0.325201E-09  0.302E-05    1.50     423.5  T
  19    -87.1847026 -0.122498E-10  0.150E-05    1.50     854.3  T
     SCC iter.                  ...        0 min,  0.079 sec
     gradient                   ...        0 min,  0.014 sec
 * total energy  :   -85.9342570 Eh     change        0.2654127E-01 Eh
   gradient norm :     0.2259658 Eh/α   predicted    -0.2185083E-01 (-182.33%)
   displ. norm   :     0.3837174 α      lambda       -0.5953116E-01
   maximum displ.:     0.2202298 α      in ANC's #40, #36, #14, ...

........................................................................
.............................. CYCLE   29 ..............................
........................................................................
   1    -87.1849646 -0.871850E+02  0.302E-01    1.48       0.0  T
   2    -87.1849719 -0.733918E-05  0.239E-01    1.49       1.0  T
   3    -87.1850963 -0.124436E-03  0.948E-02    1.47       1.0  T
   4    -87.1850513  0.449995E-04  0.103E-01    1.50       1.0  T
   5    -87.1852747 -0.223392E-03  0.251E-02    1.49       1.0  T
   6    -87.1852945 -0.197096E-04  0.122E-02    1.48       1.0  T
   7    -87.1852965 -0.209469E-05  0.997E-03    1.48       1.3  T
   8    -87.1852975 -0.100210E-05  0.742E-03    1.48       1.7  T
   9    -87.1852987 -0.110832E-05  0.460E-03    1.48       2.8  T
  10    -87.1852993 -0.604180E-06  0.315E-03    1.48       4.1  T
  11    -87.1852993 -0.731080E-07  0.172E-03    1.48       7.4  T
  12    -87.1852994 -0.724074E-07  0.961E-04    1.48      13.3  T
  13    -87.1852994 -0.118937E-07  0.570E-04    1.48      22.4  T
  14    -87.1852994 -0.573786E-08  0.320E-04    1.48      40.0  T
  15    -87.1852994 -0.820819E-09  0.318E-04    1.48      40.3  T
  16    -87.1852994 -0.140605E-08  0.109E-04    1.48     117.5  T
  17    -87.1852994 -0.354206E-09  0.453E-05    1.48     282.5  T
  18    -87.1852994 -0.279243E-10  0.235E-05    1.48     544.8  T
     SCC iter.                  ...        0 min,  0.075 sec
     gradient                   ...        0 min,  0.014 sec
 * total energy  :   -85.9630799 Eh     change       -0.2882291E-01 Eh
   gradient norm :     0.0641174 Eh/α   predicted    -0.3414802E-01 (  18.48%)
   displ. norm   :     0.5242950 α      lambda       -0.2171103E-01
   maximum displ.:     0.2118139 α      in ANC's #39, #60, #35, ...

........................................................................
.............................. CYCLE   30 ..............................
........................................................................
   1    -87.1677186 -0.871677E+02  0.280E-01    1.56       0.0  T
   2    -87.1678165 -0.978628E-04  0.208E-01    1.58       1.0  T
   3    -87.1679058 -0.893670E-04  0.114E-01    1.56       1.0  T
   4    -87.1666237  0.128213E-02  0.220E-01    1.60       1.0  T
   5    -87.1681399 -0.151616E-02  0.399E-02    1.57       1.0  T
   6    -87.1681414 -0.152367E-05  0.181E-02    1.57       1.0  T
   7    -87.1681430 -0.162406E-05  0.127E-02    1.57       1.0  T
   8    -87.1681453 -0.223455E-05  0.711E-03    1.57       1.8  T
   9    -87.1681456 -0.325555E-06  0.483E-03    1.57       2.7  T
  10    -87.1681460 -0.425193E-06  0.321E-03    1.57       4.0  T
  11    -87.1681462 -0.153512E-06  0.106E-03    1.57      12.0  T
  12    -87.1681461  0.136986E-07  0.102E-03    1.57      12.5  T
  13    -87.1681462 -0.286702E-07  0.268E-04    1.57      47.8  T
  14    -87.1681462 -0.787324E-09  0.173E-04    1.57      74.1  T
  15    -87.1681462 -0.443620E-09  0.142E-04    1.57      90.2  T
  16    -87.1681462 -0.351449E-09  0.896E-05    1.57     142.8  T
  17    -87.1681462 -0.129333E-09  0.633E-05    1.57     202.4  T
  18    -87.1681462 -0.139252E-09  0.212E-05    1.57     604.3  T
  19    -87.1681462 -0.544276E-11  0.129E-05    1.57     988.8  T
     SCC iter.                  ...        0 min,  0.079 sec
     gradient                   ...        0 min,  0.014 sec
 * total energy  :   -85.9467515 Eh     change        0.1632847E-01 Eh
   gradient norm :     0.1961308 Eh/α   predicted    -0.1383934E-01 (-184.76%)
   displ. norm   :     0.3150900 α      lambda       -0.4000656E-01
   maximum displ.:     0.1752687 α      in ANC's #39, #40, #71, ...

........................................................................
.............................. CYCLE   31 ..............................
........................................................................
   1    -87.1724733 -0.871725E+02  0.181E-01    1.56       0.0  T
   2    -87.1725743 -0.101026E-03  0.100E-01    1.57       1.0  T
   3    -87.1725262  0.480886E-04  0.992E-02    1.56       1.0  T
   4    -87.1725988 -0.725820E-04  0.660E-02    1.57       1.0  T
   5    -87.1725463  0.525174E-04  0.681E-02    1.56       1.0  T
   6    -87.1726672 -0.120932E-03  0.131E-02    1.57       1.0  T
   7    -87.1726685 -0.125660E-05  0.861E-03    1.57       1.5  T
   8    -87.1726693 -0.813631E-06  0.542E-03    1.57       2.4  T
   9    -87.1726698 -0.539140E-06  0.310E-03    1.57       4.1  T
  10    -87.1726700 -0.167716E-06  0.112E-03    1.57      11.4  T
  11    -87.1726700 -0.124651E-07  0.675E-04    1.57      19.0  T
  12    -87.1726700 -0.500825E-08  0.291E-04    1.57      44.0  T
  13    -87.1726700 -0.395488E-10  0.209E-04    1.57      61.3  T
  14    -87.1726700 -0.837929E-09  0.911E-05    1.57     140.6  T
  15    -87.1726700 -0.222158E-09  0.250E-05    1.57     511.6  T
  16    -87.1726700 -0.277112E-11  0.192E-05    1.57     667.4  T
     SCC iter.                  ...        0 min,  0.067 sec
     gradient                   ...        0 min,  0.014 sec
 * total energy  :   -85.9635427 Eh     change       -0.1679120E-01 Eh
   gradient norm :     0.0637294 Eh/α   predicted    -0.2198962E-01 (  30.96%)
   displ. norm   :     0.5866059 α      lambda       -0.2274243E-01
   maximum displ.:     0.2586308 α      in ANC's #31, #35, #60, ...

........................................................................
.............................. CYCLE   32 ..............................
........................................................................
   1    -87.1850961 -0.871851E+02  0.328E-01    1.42       0.0  T
   2    -87.1852779 -0.181805E-03  0.282E-01    1.41       1.0  T
   3    -87.1857337 -0.455779E-03  0.112E-01    1.42       1.0  T
   4    -87.1853635  0.370127E-03  0.137E-01    1.40       1.0  T
   5    -87.1854308 -0.672377E-04  0.102E-01    1.43       1.0  T
   6    -87.1857816 -0.350849E-03  0.251E-02    1.41       1.0  T
   7    -87.1857905 -0.887252E-05  0.129E-02    1.41       1.0  T
   8    -87.1857928 -0.227970E-05  0.769E-03    1.41       1.7  T
   9    -87.1857934 -0.618565E-06  0.454E-03    1.41       2.8  T
  10    -87.1857938 -0.384304E-06  0.276E-03    1.41       4.6  T
  11    -87.1857939 -0.128413E-06  0.173E-03    1.41       7.4  T
  12    -87.1857940 -0.505507E-07  0.105E-03    1.41      12.2  T
  13    -87.1857940 -0.173288E-07  0.599E-04    1.41      21.4  T
  14    -87.1857940 -0.569290E-08  0.314E-04    1.41      40.8  T
  15    -87.1857940 -0.146602E-08  0.242E-04    1.41      52.9  T
  16    -87.1857940 -0.112809E-08  0.145E-04    1.41      88.4  T
  17    -87.1857940 -0.439087E-09  0.735E-05    1.41     174.2  T
  18    -87.1857940 -0.105729E-09  0.241E-05    1.41     531.4  T
  19    -87.1857940 -0.464695E-11  0.169E-05    1.41     758.7  T
     SCC iter.                  ...        0 min,  0.079 sec
     gradient                   ...        0 min,  0.014 sec
 * total energy  :   -85.9429258 Eh     change        0.2061691E-01 Eh
   gradient norm :     0.2063052 Eh/α   predicted    -0.1528403E-01 (-174.13%)
   displ. norm   :     0.3219890 α      lambda       -0.4173579E-01
   maximum displ.:     0.1345494 α      in ANC's #31, #30, #35, ...

........................................................................
.............................. CYCLE   33 ..............................
........................................................................
   1    -87.1821459 -0.871821E+02  0.216E-01    1.47       0.0  T
   2    -87.1821871 -0.411913E-04  0.168E-01    1.48       1.0  T
   3    -87.1822722 -0.850741E-04  0.674E-02    1.47       1.0  T
   4    -87.1816946  0.577552E-03  0.145E-01    1.50       1.0  T
   5    -87.1823129 -0.618249E-03  0.276E-02    1.48       1.0  T
   6    -87.1823338 -0.209278E-04  0.121E-02    1.48       1.1  T
   7    -87.1823344 -0.643153E-06  0.582E-03    1.48       2.2  T
   8    -87.1823350 -0.590459E-06  0.375E-03    1.48       3.4  T
   9    -87.1823351 -0.563521E-07  0.352E-03    1.48       3.6  T
  10    -87.1823353 -0.181797E-06  0.152E-03    1.48       8.4  T
  11    -87.1823353 -0.392086E-07  0.682E-04    1.48      18.8  T
  12    -87.1823353 -0.155026E-09  0.500E-04    1.48      25.6  T
  13    -87.1823353 -0.762178E-08  0.276E-04    1.48      46.4  T
  14    -87.1823353 -0.143731E-08  0.159E-04    1.48      80.4  T
  15    -87.1823353 -0.547189E-09  0.112E-04    1.48     114.3  T
  16    -87.1823353 -0.261949E-09  0.782E-05    1.48     163.8  T
  17    -87.1823353 -0.127912E-09  0.462E-05    1.48     277.3  T
  18    -87.1823353 -0.528502E-10  0.125E-05    1.48    1024.1  T
     SCC iter.                  ...        0 min,  0.075 sec
     gradient                   ...        0 min,  0.014 sec
 * total energy  :   -85.9656493 Eh     change       -0.2272353E-01 Eh
   gradient norm :     0.0365389 Eh/α   predicted    -0.2303157E-01 (   1.36%)
   displ. norm   :     0.3413161 α      lambda       -0.5916227E-02
   maximum displ.:     0.1673023 α      in ANC's #35, #60, #33, ...

........................................................................
.............................. CYCLE   34 ..............................
........................................................................
   1    -87.1744943 -0.871745E+02  0.237E-01    1.61       0.0  T
   2    -87.1744215  0.727778E-04  0.247E-01    1.61       1.0  T
   3    -87.1748792 -0.457661E-03  0.108E-01    1.61       1.0  T
   4    -87.1744304  0.448824E-03  0.157E-01    1.63       1.0  T
   5    -87.1748459 -0.415559E-03  0.490E-02    1.61       1.0  T
   6    -87.1749322 -0.862723E-04  0.263E-02    1.62       1.0  T
   7    -87.1749508 -0.185710E-04  0.839E-03    1.61       1.5  T
   8    -87.1749507  0.658217E-07  0.730E-03    1.61       1.8  T
   9    -87.1749517 -0.100573E-05  0.444E-03    1.61       2.9  T
  10    -87.1749522 -0.510759E-06  0.269E-03    1.61       4.8  T
  11    -87.1749523 -0.127876E-06  0.170E-03    1.61       7.6  T
  12    -87.1749524 -0.923113E-08  0.136E-03    1.61       9.4  T
  13    -87.1749524 -0.556167E-07  0.638E-04    1.61      20.1  T
  14    -87.1749524 -0.427525E-08  0.362E-04    1.61      35.4  T
  15    -87.1749524 -0.161602E-08  0.258E-04    1.61      49.7  T
  16    -87.1749524 -0.654097E-09  0.158E-04    1.61      81.3  T
  17    -87.1749524 -0.414303E-09  0.103E-04    1.61     123.9  T
  18    -87.1749524 -0.169265E-09  0.282E-05    1.61     454.7  T
  19    -87.1749524 -0.410694E-11  0.226E-05    1.61     567.0  T
     SCC iter.                  ...        0 min,  0.079 sec
     gradient                   ...        0 min,  0.014 sec
 * total energy  :   -85.9626923 Eh     change        0.2956993E-02 Eh
   gradient norm :     0.0708943 Eh/α   predicted    -0.3302554E-02 (-211.69%)
   displ. norm   :     0.2480658 α      lambda       -0.8606512E-02
   maximum displ.:     0.1013256 α      in ANC's #35, #60, #24, ...

........................................................................
.............................. CYCLE   35 ..............................
........................................................................
   1    -87.1794986 -0.871795E+02  0.148E-01    1.53       0.0  T
   2    -87.1794386  0.599748E-04  0.147E-01    1.53       1.0  T
   3    -87.1795796 -0.140949E-03  0.803E-02    1.54       1.0  T
   4    -87.1793434  0.236154E-03  0.118E-01    1.52       1.0  T
   5    -87.1796647 -0.321259E-03  0.230E-02    1.53       1.0  T
   6    -87.1796625  0.222218E-05  0.177E-02    1.53       1.0  T
   7    -87.1796709 -0.841232E-05  0.560E-03    1.53       2.3  T
   8    -87.1796710 -0.955813E-07  0.485E-03    1.53       2.6  T
   9    -87.1796713 -0.288731E-06  0.350E-03    1.53       3.7  T
  10    -87.1796716 -0.341091E-06  0.181E-03    1.53       7.1  T
  11    -87.1796717 -0.796131E-07  0.120E-03    1.53      10.6  T
  12    -87.1796717 -0.266150E-07  0.550E-04    1.53      23.3  T
  13    -87.1796717 -0.136582E-08  0.446E-04    1.53      28.7  T
  14    -87.1796717 -0.438806E-08  0.178E-04    1.53      71.8  T
  15    -87.1796717 -0.346276E-09  0.134E-04    1.53      95.6  T
  16    -87.1796717 -0.189587E-09  0.727E-05    1.53     176.0  T
  17    -87.1796717 -0.308091E-10  0.646E-05    1.53     198.1  T
  18    -87.1796717 -0.114511E-09  0.173E-05    1.53     740.5  T
  19    -87.1796717 -0.278533E-11  0.139E-05    1.53     919.2  T
     SCC iter.                  ...        0 min,  0.079 sec
     gradient                   ...        0 min,  0.014 sec
 * total energy  :   -85.9667876 Eh     change       -0.4095335E-02 Eh
[...]
   3    -87.1861272  0.720739E-05  0.368E-02    1.55       1.0  T
   4    -87.1861048  0.224717E-04  0.318E-02    1.55       1.0  T
   5    -87.1861348 -0.300462E-04  0.865E-03    1.55       1.5  T
   6    -87.1861377 -0.293718E-05  0.399E-03    1.55       3.2  T
   7    -87.1861377  0.487630E-07  0.359E-03    1.55       3.6  T
   8    -87.1861380 -0.272963E-06  0.200E-03    1.55       6.4  T
   9    -87.1861380 -0.466208E-07  0.142E-03    1.55       9.0  T
  10    -87.1861380 -0.327877E-07  0.634E-04    1.55      20.2  T
  11    -87.1861381 -0.741549E-08  0.238E-04    1.55      53.8  T
  12    -87.1861381 -0.118457E-08  0.952E-05    1.55     134.5  T
  13    -87.1861381 -0.929816E-10  0.510E-05    1.55     251.1  T
  14    -87.1861381 -0.549676E-10  0.264E-05    1.55     484.3  T
  15    -87.1861381 -0.744649E-11  0.194E-05    1.55     660.0  T
     SCC iter.                  ...        0 min,  0.063 sec
     gradient                   ...        0 min,  0.014 sec
 * total energy  :   -85.9691367 Eh     change       -0.2599747E-03 Eh
   gradient norm :     0.0135321 Eh/α   predicted    -0.3820939E-03 (  46.97%)
================
 final structure:
================
HII-0_C_1_1_1
  xtb     08302501273D
xtb: 6.4.1 (afa7bdf)
 61 64  0     0  0            999 V2000
    0.0008    1.1120   -0.0217 Ru  0  0  0  0  0  0  0  0  0  0  0  0
    1.3593    2.5286    0.1163 C   0  0  0  0  0  0  0  0  0  0  0  0
    1.9700    2.4796   -0.7898 H   0  0  0  0  0  0  0  0  0  0  0  0
    0.0028    3.2898   -0.0788 C   0  0  0  0  0  0  0  0  0  0  0  0
    0.1164    3.9823   -0.9399 H   0  0  0  0  0  0  0  0  0  0  0  0
   -1.3534    2.5213   -0.2466 C   0  0  0  0  0  0  0  0  0  0  0  0
   -2.1666    2.8918    0.3804 H   0  0  0  0  0  0  0  0  0  0  0  0
   -1.7145    2.4859   -1.2783 H   0  0  0  0  0  0  0  0  0  0  0  0
   -0.1168    3.9591    0.8003 H   0  0  0  0  0  0  0  0  0  0  0  0
    1.9862    2.9212    0.9190 H   0  0  0  0  0  0  0  0  0  0  0  0
    1.1193   -1.7024    0.0569 N   0  0  0  0  0  0  0  0  0  0  0  0
   -1.1222   -1.7016    0.0477 N   0  0  0  0  0  0  0  0  0  0  0  0
   -0.0012   -0.9097    0.0350 C   0  0  0  0  0  0  0  0  0  0  0  0
    0.7661   -3.1437    0.0818 C   0  0  0  0  0  0  0  0  0  0  0  0
    1.1939   -3.6105    0.9741 H   0  0  0  0  0  0  0  0  0  0  0  0
    1.1853   -3.6393   -0.7987 H   0  0  0  0  0  0  0  0  0  0  0  0
   -0.7701   -3.1429    0.0879 C   0  0  0  0  0  0  0  0  0  0  0  0
   -1.1984   -3.6495   -0.7822 H   0  0  0  0  0  0  0  0  0  0  0  0
   -1.1898   -3.5974    0.9902 H   0  0  0  0  0  0  0  0  0  0  0  0
    2.4832   -1.2388    0.0776 C   0  0  0  0  0  0  0  0  0  0  0  0
    3.2054   -1.1168   -1.1251 C   0  0  0  0  0  0  0  0  0  0  0  0
    4.4996   -0.6259   -1.0897 C   0  0  0  0  0  0  0  0  0  0  0  0
    5.0518   -0.5358   -2.0081 H   0  0  0  0  0  0  0  0  0  0  0  0
    5.0968   -0.2327    0.1034 C   0  0  0  0  0  0  0  0  0  0  0  0
    4.3612   -0.3274    1.2802 C   0  0  0  0  0  0  0  0  0  0  0  0
    4.8035   -0.0005    2.2044 H   0  0  0  0  0  0  0  0  0  0  0  0
    3.0700   -0.8263    1.2900 C   0  0  0  0  0  0  0  0  0  0  0  0
    2.5795   -1.5101   -2.4140 C   0  0  0  0  0  0  0  0  0  0  0  0
    1.4923   -1.4492   -2.3525 H   0  0  0  0  0  0  0  0  0  0  0  0
    2.8472   -2.5330   -2.6815 H   0  0  0  0  0  0  0  0  0  0  0  0
    2.8993   -0.8517   -3.2227 H   0  0  0  0  0  0  0  0  0  0  0  0
    6.4747    0.3303    0.1133 C   0  0  0  0  0  0  0  0  0  0  0  0
    7.0784   -0.0919   -0.6911 H   0  0  0  0  0  0  0  0  0  0  0  0
    6.9811    0.1148    1.0550 H   0  0  0  0  0  0  0  0  0  0  0  0
    6.4511    1.4131   -0.0163 H   0  0  0  0  0  0  0  0  0  0  0  0
    2.2986   -0.8867    2.5586 C   0  0  0  0  0  0  0  0  0  0  0  0
    2.0602    0.1164    2.9146 H   0  0  0  0  0  0  0  0  0  0  0  0
    2.8649   -1.3986    3.3377 H   0  0  0  0  0  0  0  0  0  0  0  0
    1.3579   -1.4211    2.4229 H   0  0  0  0  0  0  0  0  0  0  0  0
   -2.4851   -1.2390   -0.0106 C   0  0  0  0  0  0  0  0  0  0  0  0
   -3.2139   -1.0410    1.1778 C   0  0  0  0  0  0  0  0  0  0  0  0
   -4.5075   -0.5529    1.1042 C   0  0  0  0  0  0  0  0  0  0  0  0
   -5.0649   -0.4048    2.0119 H   0  0  0  0  0  0  0  0  0  0  0  0
   -5.0980   -0.2365   -0.1149 C   0  0  0  0  0  0  0  0  0  0  0  0
   -4.3560   -0.4060   -1.2792 C   0  0  0  0  0  0  0  0  0  0  0  0
   -4.7932   -0.1394   -2.2249 H   0  0  0  0  0  0  0  0  0  0  0  0
   -3.0646   -0.9036   -1.2500 C   0  0  0  0  0  0  0  0  0  0  0  0
   -2.5959   -1.3539    2.4923 C   0  0  0  0  0  0  0  0  0  0  0  0
   -1.5079   -1.3061    2.4315 H   0  0  0  0  0  0  0  0  0  0  0  0
   -2.8730   -2.3549    2.8251 H   0  0  0  0  0  0  0  0  0  0  0  0
   -2.9131   -0.6412    3.2547 H   0  0  0  0  0  0  0  0  0  0  0  0
   -6.4757    0.3246   -0.1676 C   0  0  0  0  0  0  0  0  0  0  0  0
   -6.9718    0.0631   -1.1032 H   0  0  0  0  0  0  0  0  0  0  0  0
   -6.4536    1.4124   -0.0908 H   0  0  0  0  0  0  0  0  0  0  0  0
   -7.0881   -0.0583    0.6497 H   0  0  0  0  0  0  0  0  0  0  0  0
   -2.2877   -1.0477   -2.5086 C   0  0  0  0  0  0  0  0  0  0  0  0
   -1.3279   -1.5319   -2.3264 H   0  0  0  0  0  0  0  0  0  0  0  0
   -2.0859   -0.0722   -2.9530 H   0  0  0  0  0  0  0  0  0  0  0  0
   -2.8325   -1.6479   -3.2384 H   0  0  0  0  0  0  0  0  0  0  0  0
   -0.3305    1.2769    2.3135 Cl  0  0  0  0  0  0  0  0  0  0  0  0
    0.3322    1.1363   -2.3627 Cl  0  0  0  0  0  0  0  0  0  0  0  0
  1 13  1  0  0  0  0
  1 60  1  0  0  0  0
  1 61  1  0  0  0  0
  2  4  1  0  0  0  0
  2  1  1  0  0  0  0
  2  3  1  0  0  0  0
  4  6  1  0  0  0  0
  4  5  1  0  0  0  0
  6  1  1  0  0  0  0
  6  8  1  0  0  0  0
  7  6  1  0  0  0  0
  9  4  1  0  0  0  0
 10  2  1  0  0  0  0
 11 13  1  0  0  0  0
 11 14  1  0  0  0  0
 11 20  1  0  0  0  0
 12 13  1  0  0  0  0
 12 17  1  0  0  0  0
 12 40  1  0  0  0  0
 14 15  1  0  0  0  0
 14 16  1  0  0  0  0
 14 17  1  0  0  0  0
 17 18  1  0  0  0  0
 17 19  1  0  0  0  0
 20 21  1  0  0  0  0
 20 27  2  0  0  0  0
 21 22  2  0  0  0  0
 21 28  1  0  0  0  0
 22 23  1  0  0  0  0
 22 24  1  0  0  0  0
 24 25  2  0  0  0  0
 24 32  1  0  0  0  0
 25 26  1  0  0  0  0
 25 27  1  0  0  0  0
 27 36  1  0  0  0  0
 28 29  1  0  0  0  0
 28 30  1  0  0  0  0
 28 31  1  0  0  0  0
 32 33  1  0  0  0  0
 32 34  1  0  0  0  0
 32 35  1  0  0  0  0
 36 37  1  0  0  0  0
 36 38  1  0  0  0  0
 36 39  1  0  0  0  0
 40 41  1  0  0  0  0
 40 47  2  0  0  0  0
 41 42  2  0  0  0  0
 41 48  1  0  0  0  0
 42 43  1  0  0  0  0
 42 44  1  0  0  0  0
 44 45  2  0  0  0  0
 44 52  1  0  0  0  0
 45 46  1  0  0  0  0
 45 47  1  0  0  0  0
 47 56  1  0  0  0  0
 48 49  1  0  0  0  0
 48 50  1  0  0  0  0
 48 51  1  0  0  0  0
 52 53  1  0  0  0  0
 52 54  1  0  0  0  0
 52 55  1  0  0  0  0
 56 57  1  0  0  0  0
 56 58  1  0  0  0  0
 56 59  1  0  0  0  0
M  END
> <cdk:Title>
Conformer_1

> <STATE_NAME>
HII-0_C_1_1_1

> <CHARGE>
0

> <SPIN_MULTIPLICITY>
1

$$$$
 
 Bond Distances (Angstroems)
 ---------------------------
Ru1-C2=1.9676        Ru1-C4=2.1785        Ru1-C6=1.9674        Ru1-C13=2.0225       Ru1-Cl60=2.3643      Ru1-Cl61=2.3645      
C2-Ru1=1.9676        C2-H3=1.0938         C2-C4=1.5677         C2-H10=1.0915        H3-C2=1.0938         C4-Ru1=2.1785        
C4-C2=1.5677         C4-H5=1.1108         C4-C6=1.5678         C4-H9=1.1113         H5-C4=1.1108         C6-Ru1=1.9674        
C6-C4=1.5678         C6-H7=1.0916         C6-H8=1.0936         H7-C6=1.0916         H8-C6=1.0936         H9-C4=1.1113         
H10-C2=1.0915        N11-C13=1.3727       N11-C14=1.4842       N11-C20=1.4407       N12-C13=1.3726       N12-C17=1.4842       
N12-C40=1.4404       C13-Ru1=2.0225       C13-N11=1.3727       C13-N12=1.3726       C14-N11=1.4842       C14-H15=1.0941       
C14-H16=1.0939       C14-C17=1.5362       H15-C14=1.0941       H16-C14=1.0939       C17-N12=1.4842       C17-C14=1.5362       
C17-H18=1.0941       C17-H19=1.0940       H18-C17=1.0941       H19-C17=1.0940       C20-N11=1.4407       C20-C21=1.4082       
C20-C27=1.4087       C21-C20=1.4082       C21-C22=1.3846       C21-C28=1.4858       C22-C21=1.3846       C22-H23=1.0754       
C22-C24=1.3909       H23-C22=1.0754       C24-C22=1.3909       C24-C25=1.3910       C24-C32=1.4885       C25-C24=1.3910       
C25-H26=1.0755       C25-C27=1.3843       H26-C25=1.0755       C27-C20=1.4087       C27-C25=1.3843       C27-C36=1.4860       
C28-C21=1.4858       C28-H29=1.0906       C28-H30=1.0907       C28-H31=1.0908       H29-C28=1.0906       H30-C28=1.0907       
H31-C28=1.0908       C32-C24=1.4885       C32-H33=1.0908       C32-H34=1.0907       C32-H35=1.0908       H33-C32=1.0908       
H34-C32=1.0907       H35-C32=1.0908       C36-C27=1.4860       C36-H37=1.0908       C36-H38=1.0907       C36-H39=1.0904       
H37-C36=1.0908       H38-C36=1.0907       H39-C36=1.0904       C40-N12=1.4404       C40-C41=1.4081       C40-C47=1.4087       
C41-C40=1.4081       C41-C42=1.3846       C41-C48=1.4858       C42-C41=1.3846       C42-H43=1.0754       C42-C44=1.3910       
H43-C42=1.0754       C44-C42=1.3910       C44-C45=1.3910       C44-C52=1.4885       C45-C44=1.3910       C45-H46=1.0754       
C45-C47=1.3843       H46-C45=1.0754       C47-C40=1.4087       C47-C45=1.3843       C47-C56=1.4861       C48-C41=1.4858       
C48-H49=1.0907       C48-H50=1.0907       C48-H51=1.0908       H49-C48=1.0907       H50-C48=1.0907       H51-C48=1.0908       
C52-C44=1.4885       C52-H53=1.0908       C52-H54=1.0907       C52-H55=1.0907       H53-C52=1.0908       H54-C52=1.0907       
H55-C52=1.0907       C56-C47=1.4861       C56-H57=1.0903       C56-H58=1.0908       C56-H59=1.0907       H57-C56=1.0903       
H58-C56=1.0908       H59-C56=1.0907       Cl60-Ru1=2.3643      Cl61-Ru1=2.3645      
 C  H  Rav=1.0907 sigma=0.0076  Rmin=1.0754  Rmax=1.1113    32
 C  C  Rav=1.4442 sigma=0.0620  Rmin=1.3843  Rmax=1.5678    21
 N  C  Rav=1.4325 sigma=0.0459  Rmin=1.3726  Rmax=1.4842     6
 Ru C  Rav=2.0340 sigma=0.0864  Rmin=1.9674  Rmax=2.1785     4
 Ru Cl Rav=2.3644 sigma=0.0001  Rmin=2.3643  Rmax=2.3645     2
 
 selected bond angles (degree)
 --------------------
C4-Ru1-C2= 44.07               C6-Ru1-C2= 88.14               C6-Ru1-C4= 44.07               C13-Ru1-C2=135.92              
C13-Ru1-C4=179.90              C13-Ru1-C6=135.94              Cl60-Ru1-C2= 88.70             Cl60-Ru1-C4= 87.50             
Cl60-Ru1-C6= 88.08             Cl60-Ru1-C13= 92.40            Cl61-Ru1-C2= 88.01             Cl61-Ru1-C4= 87.92             
Cl61-Ru1-C6= 88.62             Cl61-Ru1-C13= 92.19            Cl61-Ru1-Cl60=175.41           H3-C2-Ru1=107.17               
C4-C2-Ru1= 75.13               C4-C2-H3=113.69                H10-C2-Ru1=135.00              H10-C2-H3=107.74               
H10-C2-C4=114.45               C2-C4-Ru1= 60.80               H5-C4-Ru1=130.06               H5-C4-C2=108.10                
C6-C4-Ru1= 60.79               C6-C4-C2=121.59                C6-C4-H5=108.12                H9-C4-Ru1=125.54               
H9-C4-C2=106.68                H9-C4-H5=104.40                H9-C4-C6=106.66                C4-C6-Ru1= 75.14               
H7-C6-Ru1=133.65               H7-C6-C4=114.62                H8-C6-Ru1=108.18               H8-C6-C4=113.73                
H8-C6-H7=107.87                
 
 selected dihedral angles (degree)
 ---------------------------------
H3-C2-Ru1-C4=249.32           H3-C2-Ru1-C6=249.70           H3-C2-Ru1-C13= 69.47          H3-C2-Ru1-Cl60=161.58         
H3-C2-Ru1-Cl61=338.38         C4-C2-Ru1-C6=  0.38           C4-C2-Ru1-C13=180.15          C4-C2-Ru1-Cl60=272.26         
C4-C2-Ru1-Cl61= 89.06         H10-C2-Ru1-C4=109.88          H10-C2-Ru1-C6=110.26          H10-C2-Ru1-C13=290.03         
H10-C2-Ru1-Cl60= 22.14        H10-C2-Ru1-Cl61=198.94        C2-C4-Ru1-C6=180.54           C2-C4-Ru1-C13= 84.87          
C2-C4-Ru1-Cl60= 90.71         C2-C4-Ru1-Cl61=270.71         H5-C4-Ru1-C2= 89.72           H5-C4-Ru1-C6=270.26           
H5-C4-Ru1-C13=174.59          H5-C4-Ru1-Cl60=180.43         H5-C4-Ru1-Cl61=  0.43         C6-C4-Ru1-C2=179.46           
C6-C4-Ru1-C13=264.33          C6-C4-Ru1-Cl60=270.17         C6-C4-Ru1-Cl61= 90.17         H9-C4-Ru1-C2=269.71           
H9-C4-Ru1-C6= 90.25           H9-C4-Ru1-C13=354.59          H9-C4-Ru1-Cl60=  0.43         H9-C4-Ru1-Cl61=180.42         
Ru1-C4-C2-H3=102.53           Ru1-C4-C2-H10=226.93          H5-C4-C2-Ru1=233.63           H5-C4-C2-H3=336.16            
H5-C4-C2-H10=100.56           C6-C4-C2-Ru1=359.45           C6-C4-C2-H3=101.98            C6-C4-C2-H10=226.37           
H9-C4-C2-Ru1=121.84           H9-C4-C2-H3=224.37            H9-C4-C2-H10=348.77           C4-C6-Ru1-C2=359.62           
C4-C6-Ru1-C13=179.85          C4-C6-Ru1-Cl60= 88.38         C4-C6-Ru1-Cl61=271.57         H7-C6-Ru1-C2=249.60           
H7-C6-Ru1-C4=249.98           H7-C6-Ru1-C13= 69.83          H7-C6-Ru1-Cl60=338.36         H7-C6-Ru1-Cl61=161.55         
H8-C6-Ru1-C2=110.18           H8-C6-Ru1-C4=110.56           H8-C6-Ru1-C13=290.41          H8-C6-Ru1-Cl60=198.94         
H8-C6-Ru1-Cl61= 22.13         Ru1-C6-C4-C2=  0.55           Ru1-C6-C4-H5=126.36           Ru1-C6-C4-H9=238.15           
H7-C6-C4-Ru1=131.60           H7-C6-C4-C2=132.15            H7-C6-C4-H5=257.96            H7-C6-C4-H9=  9.75            
H8-C6-C4-Ru1=256.36           H8-C6-C4-C2=256.91            H8-C6-C4-H5= 22.72            H8-C6-C4-H9=134.51            
           -------------------------------------------------
          |                Final Singlepoint                |
           -------------------------------------------------

          ...................................................
          :                      SETUP                      :
          :.................................................:
          :  # basis functions                 166          :
          :  # atomic orbitals                 163          :
          :  # shells                           93          :
          :  # electrons                       160          :
          :  max. iterations                  1000          :
          :  Hamiltonian                  GFN2-xTB          :
          :  restarted?                      false          :
          :  GBSA solvation                  false          :
          :  PC potential                    false          :
          :  electronic temp.          300.0000000     K    :
          :  accuracy                    0.0500000          :
          :  -> integral cutoff          0.3801030E+02      :
          :  -> integral neglect         0.5000000E-09      :
          :  -> SCF convergence          0.5000000E-07 Eh   :
          :  -> wf. convergence          0.5000000E-05 e    :
          :  Broyden damping             0.4000000          :
          ...................................................

 iter      E             dE          RMSdq      gap      omega  full diag
   1    -87.1299276 -0.871299E+02  0.644E-01    1.62       0.0  T
   2    -87.1217963  0.813124E-02  0.583E-01    1.71       1.0  T
   3    -87.1165271  0.526927E-02  0.731E-01    1.54       1.0  T
   4    -87.1305948 -0.140678E-01  0.270E-01    1.62       1.0  T
   5    -87.1322539 -0.165908E-02  0.129E-01    1.66       1.0  T
   6    -87.1326623 -0.408356E-03  0.509E-02    1.65       1.0  T
   7    -87.1326776 -0.152721E-04  0.384E-02    1.64       1.0  T
   8    -87.1327045 -0.269718E-04  0.282E-02    1.65       1.0  T
   9    -87.1327134 -0.890269E-05  0.194E-02    1.65       1.0  T
  10    -87.1327227 -0.929125E-05  0.980E-03    1.65       1.3  T
  11    -87.1327251 -0.238203E-05  0.473E-03    1.65       2.7  T
  12    -87.1327253 -0.209125E-06  0.311E-03    1.65       4.1  T
  13    -87.1327255 -0.194289E-06  0.218E-03    1.65       5.9  T
  14    -87.1327256 -0.945740E-07  0.121E-03    1.65      10.6  T
  15    -87.1327256 -0.233943E-07  0.931E-04    1.65      13.8  T
  16    -87.1327256 -0.121398E-07  0.408E-04    1.65      31.4  T
  17    -87.1327256 -0.381945E-08  0.151E-04    1.65      84.6  T
  18    -87.1327256 -0.266937E-09  0.112E-04    1.65     114.0  T
  19    -87.1327256 -0.101906E-09  0.292E-05    1.65     438.8  T
  20    -87.1327256 -0.119087E-10  0.120E-05    1.65    1070.1  T

   *** convergence criteria satisfied after 20 iterations ***

         #    Occupation            Energy/Eh            Energy/eV
      -------------------------------------------------------------
         1        2.0000           -1.0148997             -27.6168
       ...           ...                  ...                  ...
        74        2.0000           -0.3772660             -10.2659
        75        2.0000           -0.3737929             -10.1714
        76        2.0000           -0.3703043             -10.0765
        77        2.0000           -0.3694229             -10.0525
        78        2.0000           -0.3684840             -10.0270
        79        2.0000           -0.3401739              -9.2566
        80        2.0000           -0.3339416              -9.0870 (HOMO)
        81                         -0.2733908              -7.4393 (LUMO)
        82                         -0.2712078              -7.3799
        83                         -0.2331711              -6.3449
        84                         -0.2298254              -6.2539
        85                         -0.2245880              -6.1114
       ...                                ...                  ...
       163                          2.5393276              69.0986
      -------------------------------------------------------------
                  HL-Gap            0.0605507 Eh            1.6477 eV
             Fermi-level           -0.3036662 Eh           -8.2632 eV

 SCC (total)                   0 d,  0 h,  0 min,  0.106 sec
 SCC setup                      ...        0 min,  0.000 sec (  0.295%)
 Dispersion                     ...        0 min,  0.001 sec (  0.567%)
 classical contributions        ...        0 min,  0.000 sec (  0.094%)
 integral evaluation            ...        0 min,  0.005 sec (  5.066%)
 iterations                     ...        0 min,  0.085 sec ( 80.097%)
 molecular gradient             ...        0 min,  0.014 sec ( 13.591%)
 printout                       ...        0 min,  0.000 sec (  0.254%)

         :::::::::::::::::::::::::::::::::::::::::::::::::::::
         ::                     SUMMARY                     ::
         :::::::::::::::::::::::::::::::::::::::::::::::::::::
         :: total energy             -85.947248296417 Eh    ::
         :: gradient norm              0.086483696121 Eh/a0 ::
         :: HOMO-LUMO gap              1.647669615286 eV    ::
         ::.................................................::
         :: SCC energy               -87.132725640419 Eh    ::
         :: -> isotropic ES            0.049008273550 Eh    ::
         :: -> anisotropic ES          0.007192048538 Eh    ::
         :: -> anisotropic XC          0.034127311916 Eh    ::
         :: -> dispersion             -0.083844444509 Eh    ::
         :: repulsion energy           1.182238959548 Eh    ::
         :: add. restraining           0.000000000000 Eh    ::
         :: total charge               0.000000000000 e     ::
         :::::::::::::::::::::::::::::::::::::::::::::::::::::


last geometry written to: xtblast.sdf

########################################################################
[ERROR] Program stopped due to fatal error
-5- Geometry optimization failed
-4- xtb_geoopt: Trying to recover from failed geometry optimization
-3- xtb_geoopt: Geometry optimization did not converge
-2- optimizer_ancopt: Could not relax structure
-1- optimizer_relax: internal rational function error
########################################################################
abnormal termination of xtb
