
                                 *****************
                                 * O   R   C   A *
                                 *****************

                                            #,                                       
                                            ###                                      
                                            ####                                     
                                            #####                                    
                                            ######                                   
                                           ########,                                 
                                     ,,################,,,,,                         
                               ,,#################################,,                 
                          ,,##########################################,,             
                       ,#########################################, ''#####,          
                    ,#############################################,,   '####,        
                  ,##################################################,,,,####,       
                ,###########''''           ''''###############################       
              ,#####''   ,,,,##########,,,,          '''####'''          '####       
            ,##' ,,,,###########################,,,                        '##       
           ' ,,###''''                  '''############,,,                           
         ,,##''                                '''############,,,,        ,,,,,,###''
      ,#''                                            '''#######################'''  
     '                                                          ''''####''''         
             ,#######,   #######,   ,#######,      ##                                
            ,#'     '#,  ##    ##  ,#'     '#,    #''#        ,####,   ,####,        
            ##       ##  ##   ,#'  ##            #'  '#       #'       #'  '#        
            ##       ##  #######   ##           ,######,      #####,   #    #        
            '#,     ,#'  ##    ##  '#,     ,#' ,#      #,     #,   #   #,  ,#        
             '#######'   ##     ##  '#######'  #'      '#     '####' # '####'        



                #########################################################
                #                        -***-                          #
                #          Department of theory and spectroscopy        #
                #                                                       #
                #                      Frank Neese                      #
                #                                                       #
                #     Directorship, Architecture, Infrastructure        #
                #                    SHARK, DRIVERS                     #
                #        Core code/Algorithms in most modules           #
                #                                                       #
                #        Max Planck Institute fuer Kohlenforschung      #
                #                Kaiser Wilhelm Platz 1                 #
                #                 D-45470 Muelheim/Ruhr                 #
                #                      Germany                          #
                #                                                       #
                #                  All rights reserved                  #
                #                        -***-                          #
                #########################################################


                         Program Version 6.0.1  -  RELEASE   -


 With contributions from (in alphabetic order):
[Max-Planck-Institut fuer Kohlenforschung]                               
  Daniel Aravena         : Magnetic Suceptibility                        
  Michael Atanasov       : Ab Initio Ligand Field Theory (pilot matlab implementation)
  Alexander A. Auer      : GIAO ZORA, VPT2 properties, NMR spectrum      
  Ute Becker             : All parallelization in ORCA, NUMFREQ, NUMCALC 
  Giovanni Bistoni       : ED, misc. LED, open-shell LED, HFLD           
  Martin Brehm           : Molecular dynamics                            
  Dmytro Bykov           : pre 5.0 version of the SCF Hessian            
  Marcos Casanova-Páez   : Triplet and SCS-CIS(D). UHF-(DLPNO)-IP/EA/STEOM-CCSD. UHF-CVS-IP/STEOM-CCSD   
  Vijay G. Chilkuri      : MRCI spin determinant printing, contributions to CSF-ICE 
  Pauline Colinet        : FMM embedding                                 
  Dipayan Datta          : RHF DLPNO-CCSD density                        
  Achintya Kumar Dutta   : EOM-CC, STEOM-CC                              
  Nicolas Foglia         : Exact transition moments, OPA infrastructure, MCD improvements    
  Dmitry Ganyushin       : Spin-Orbit,Spin-Spin,Magnetic field MRCI      
  Miquel Garcia-Rates    : C-PCM and meta-GGA Hessian, CCSD/C-PCM, Gaussian charge scheme 
  Tiago L. C. Gouveia    : GS-ROHF, GS-ROCIS                             
  Yang Guo               : DLPNO-NEVPT2, F12-NEVPT2, CIM, IAO-localization        
  Andreas Hansen         : Spin unrestricted coupled pair/coupled cluster methods 
  Ingolf Harden          : AUTO-CI MPn and infrastructure                
  Benjamin Helmich-Paris : MC-RPA, TRAH-(SCF,CASSCF), AVAS, COSX integrals, SCF dyn. polar. 
  Lee Huntington         : MR-EOM, pCC                                   
  Robert Izsak           : Overlap fitted RIJCOSX, COSX-SCS-MP3, EOM     
  Riya Kayal             : Wick's Theorem for AUTO-CI, AUTO-CI UHF-CCSDT 
  Emily Kempfer          : AUTO-CI, RHF CISDT and CCSDT                  
  Christian Kollmar      : KDIIS, OOCD, Brueckner-CCSD(T), CCSD density, CASPT2, CASPT2-K, improved NEVPT2 
  Axel Koslowski         : Symmetry handling                             
  Simone Kossmann        : meta-GGA functionals, TD-DFT gradient, OOMP2, (MP2 Hessian; deprecated post 5.0) 
  Lucas Lang             : DCDCAS                                        
  Marvin Lechner         : AUTO-CI (C++ implementation), FIC-MRCC        
  Spencer Leger          : CASSCF response                               
  Dagmar Lenk            : GEPOL surface, SMD, ORCA-2-JSON               
  Dimitrios Liakos       : Extrapolation schemes; Compound Job, initial MDCI parallelization 
  Dimitrios Manganas     : Further ROCIS development; embedding schemes. LFT, Crystal Embedding 
  Dimitrios Pantazis     : SARC Basis sets                               
  Anastasios Papadopoulos: AUTO-CI, single reference methods and gradients 
  Taras Petrenko         : pre 6.0 DFT Hessian and TD-DFT gradient, (ASA, deprecated), ECA, 1-Electron XAS/XES, NRVS 
  Peter Pinski           : DLPNO-MP2, DLPNO-MP2 Gradient                 
  Christoph Reimann      : Effective Core Potentials                     
  Marius Retegan         : Local ZFS, SOC                                
  Christoph Riplinger    : Optimizer, TS searches, QM/MM, DLPNO-CCSD(T), (RO)-DLPNO pert. Triples 
  Michael Roemelt        : Original ROCIS implementation                 
  Masaaki Saitow         : Open-shell DLPNO-CCSD energy and density      
  Barbara Sandhoefer     : DKH picture change effects                    
  Kantharuban Sivalingam : CASSCF convergence/infrastructure, NEVPT2 and variants, FIC-MRCI 
  Bernardo de Souza      : ESD, SOC TD-DFT                               
  Georgi L. Stoychev     : AutoAux, RI-MP2 NMR, DLPNO-MP2 response, X2C  
  Van Anh Tran           : RI-MP2 g-tensors                              
  Willem Van den Heuvel  : Paramagnetic NMR                              
  Zikuan Wang            : NOTCH, Electric field optimization            
  Frank Wennmohs         : Technical directorship and infrastructure     
  Hang Xu                : AUTO-CI-Response properties                   
                                                                         
[FACCTs GmbH]                                                            
  Markus Bursch, Miquel Garcia-Rates, Christoph Riplinger, Bernardo de Souza, Georgi L. Stoychev 
                                                                 
  APM, Basis sets (HGBS, AHGBS, def-TZVP (Ac-Lr), def2-XVPD (La-Lu)), CI-OPT, improved COSX, DLPNO-Multilevel,           
  DOCKER, DRACO, updates on ESD, GOAT, IRC, LR-CPCM, MBIS, meta-GGA TD-DFT gradient, ML-optimized integration grids, 
  MM, NACMEs, nearIR, NEB, NEB-TS, NL-DFT gradient (VV10), 2- and 3-layer-ONIOM, interface openCOSMO-RS, QMMM,   
  Crystal-QMMM, SF, symmetry and pop. for TD-DFT, r2SCAN hybrids, SOLVATOR                                   
                                                                         
[Other institutions]                                                     
  V. Asgeirsson          : NEB                                           
  Christoph Bannwarth    : sTDA-DFT, sTD-DFT, PBEh-3c, B97-3c, D3        
  Sebastian Ehlert       : rSCAN, r2SCAN, r2SCAN-3c, D4, dhf basis sets  
  Marvin Friede          : D4 for Fr, Ra, Ac-Lr                          
  Lars Goerigk           : TD-DFT with DH, B97 family of functionals     
  Stefan Grimme          : VdW corrections, initial TS optimization, DFT functionals, gCP, sTDA/sTD-DF 
  Waldemar Hujo          : DFT-NL                                        
  H. Jonsson             : NEB                                           
  Holger Kruse           : gCP                                           
  Marcel Mueller         : wB97X-3c, vDZP basis set                      
  Hagen Neugebauer       : wr2SCAN                                       
  Tobias Risthaus        : range-separated hybrid DFT                    
  Lukas Wittmann         : regularized MP2, r2SCAN double-hybrids, wr2SCAN        
                                                                         
We gratefully acknowledge several colleagues who have allowed us to      
interface, adapt or use parts of their codes:                            
  Ed Valeev, F. Pavosevic, A. Kumar             : LibInt (2-el integral package), F12 methods 
  Garnet Chan, S. Sharma, J. Yang, R. Olivares  : DMRG                   
  Ulf Ekstrom                                   : XCFun DFT Library      
  Mihaly Kallay                                 : mrcc  (arbitrary order and MRCC methods)
  Frank Weinhold                                : gennbo (NPA and NBO analysis)           
  Simon Mueller                                 : openCOSMO-RS                            
  Christopher J. Cramer and Donald G. Truhlar   : smd solvation model                     
  S Lehtola, MJT Oliveira, MAL Marques          : LibXC Library                           
  Liviu Ungur et al                             : ANISO software                          


 Your calculation uses the libint2 library for the computation of 2-el integrals
 For citations please refer to: http://libint.valeyev.net

 Your ORCA version has been built with support for libXC version: 6.2.2
 For citations please refer to: https://libxc.gitlab.io

 This ORCA versions uses:
   CBLAS   interface :  Fast vector & matrix operations
   LAPACKE interface :  Fast linear algebra routines
   SCALAPACK package :  Parallel linear algebra routines
   Shared memory     :  Shared parallel matrices
   BLAS/LAPACK       :  OpenBLAS 0.3.27  USE64BITINT DYNAMIC_ARCH NO_AFFINITY SkylakeX SINGLE_THREADED
        Core in use  :  SkylakeX
   Copyright (c) 2011-2014, The OpenBLAS Project


NOTE: MaxCore=1400 MB was set to SCF,MP2,MDCI,CIPSI,MRCI and CIS
      => If you want to overwrite this, your respective input block should be placed after the MaxCore statement
Your calculation utilizes the geometrical counterpoise correction gCP
Please cite in your paper:
H.Kruse, S. Grimme J.Chem.Phys., 136, (2012), 154101 
   

Your calculation utilizes the atom-pairwise dispersion correction
based on EEQ partial charges (D4)


================================================================================

cite the ECPs for Ru [Def2-ECP] as follows:
Ce-Yb(ecp-28): M. Dolg, H. Stoll, H.Preuss, J. Chem. Phys., 1989, 90, 1730-1734.
Y-Cd(ecp-28), Hf-Hg(ecp-46): D. Andrae,U. Haeussermann, M. Dolg, H. Stoll, H. Preuss, Theor. Chim. Acta, 1990, 77, 123-141.
In-Sb(ecp-28), Tl-Bi(ecp-46): B. Metz, H. Stoll, M. Dolg, J. Chem. Phys., 2000, 113, 2563-2569.
Te-Xe(ecp-28), Po-Rn(ecp-46): K. A. Peterson, D. Figgen, E. Goll, H. Stoll, M. Dolg, J. Chem. Phys., 2003, 119, 11113-11123.
Rb(ecp-28), Cs(ecp-46): T. Leininger, A. Nicklass, W. Kuechle, H. Stoll, M. Dolg, A. Bergner, Chem. Phys. Lett., 1996, 255, 274-280.
Sr(ecp-28), Ba(ecp-46): M. Kaupp, P. V. Schleyer, H. Stoll and H. Preuss, J. Chem. Phys., 1991, 94, 1360-1366.
La(ecp-46): M. Dolg, H. Stoll, A. Savin, H. Preuss, Theor. Chim. Acta, 1989, 75, 173-194.
Lu(ecp-28): X. Cao, M. Dolg, J. Chem. Phys., 2001, 115, 7348-7355.
Fr-Lr(ecp-60) K. Eichkorn, F. Weigend, O. Treutler, R. Ahlrichs, Theor. Chem. Acc. 1997, 97, 119.

ECP parameters for Ru [Def2-ECP] have been obtained from:
TURBOMOLE (7.0.2)

----- Orbital basis set information -----
Your calculation utilizes the basis: def2-mTZVPP
   Stefan Grimme, Andreas Hansen, Sebastian Ehlert, and Jan-Michael Mewes 
   J. Chem. Phys. 154, 064103 (2021). DOI: 10.1063/5.0040021

----- AuxJ basis set information -----
Your calculation utilizes the basis: def2-mTZVPP/J
   Stefan Grimme, Andreas Hansen, Sebastian Ehlert, and Jan-Michael Mewes 
   J. Chem. Phys. 154, 000000 (2021). DOI: 10.1063/5.0040021

================================================================================
                                        WARNINGS
                       Please study these warnings very carefully!
================================================================================



WARNING: SCAN, rSCAN, or r2SCAN functional requested.
  ===> : libXC variant has now been activated.



================================================================================
                                       INPUT FILE
================================================================================
NAME = cli47.inp
|  1> %maxcore 1400
|  2> %pal nprocs 20 end
|  3> ! RKS r2scan-3c Opt MOREAD
|  4> %geom
|  5>   maxiter 10
|  6> end
|  7> %scf
|  8>   maxiter 500
|  9> end
| 10> %moinp "restart.gbw"
| 11> * xyz 0 1
| 12>   Ru     -1.053246      0.039292     -0.013507
| 13>   O       0.972642     -0.811404     -0.609111
| 14>   C       0.053622      1.458108      0.415717
| 15>   H      -0.293166      2.398309      0.851026
| 16>   C       1.345002     -2.186685     -0.998900
| 17>   H       2.051462     -2.083238     -1.832130
| 18>   C       1.971862     -2.899394      0.185025
| 19>   H       2.833185     -2.356720      0.583052
| 20>   H       2.308889     -3.891661     -0.131865
| 21>   H       1.233189     -3.011346      0.983001
| 22>   C       0.082286     -2.856662     -1.495632
| 23>   H      -0.650793     -2.948714     -0.686937
| 24>   H       0.334624     -3.865258     -1.837145
| 25>   H      -0.359566     -2.302360     -2.326599
| 26>   C       1.938745      0.132769     -0.416870
| 27>   C       3.283032     -0.016794     -0.731882
| 28>   H       3.668981     -0.935944     -1.154320
| 29>   C       4.150138      1.047643     -0.493956
| 30>   H       5.200719      0.931040     -0.742485
| 31>   C       3.696005      2.247281      0.053074
| 32>   H       4.389593      3.062208      0.231547
| 33>   C       2.355039      2.391422      0.363119
| 34>   H       1.979007      3.319343      0.784762
| 35>   C       1.450329      1.339833      0.133339
| 36>   Cl     -1.495952      0.339170     -2.269079
| 37>   Cl     -1.031512     -1.369620      1.835409
| 38>   C      -2.529496      0.927693      0.531565
| 39>   O      -3.442721      1.529388      0.893382
| 40> *
| 41> 
| 42>                          ****END OF INPUT****
================================================================================

                       *****************************
                       * Geometry Optimization Run *
                       *****************************

Geometry optimization settings:
Update method            Update   .... BFGS
Choice of coordinates    CoordSys .... (2022) Redundant Internals
Initial Hessian          InHess   .... Almloef's Model
Max. no of cycles        MaxIter  .... 10

Convergence Tolerances:
Energy Change            TolE     ....  5.0000e-06 Eh
Max. Gradient            TolMAXG  ....  3.0000e-04 Eh/bohr
RMS Gradient             TolRMSG  ....  1.0000e-04 Eh/bohr
Max. Displacement        TolMAXD  ....  4.0000e-03 bohr
RMS Displacement         TolRMSD  ....  2.0000e-03 bohr
Strict Convergence                .... False

------------------------------------------------------------------------------
                        ORCA OPTIMIZATION COORDINATE SETUP
------------------------------------------------------------------------------

The optimization will be done in redundant internal coordinates (2022)
Making redundant internal coordinates   ...  (2022 redundants) done
Evaluating the initial hessian          ...  (Almloef) done
Evaluating the coordinates              ...  done
Calculating the B-matrix                .... done
Calculating the G-matrix                .... done
Diagonalizing the G-matrix              .... done
Small eigenvalue found = 1.397e-02
Small eigenvalue found = 2.968e-02
The first mode is                       ....   68
The number of degrees of freedom        ....   78

    -----------------------------------------------------------------
                    Redundant Internal Coordinates


    -----------------------------------------------------------------
         Definition                    Initial Value    Approx d2E/dq
    -----------------------------------------------------------------
      1. B(O   1,Ru  0)                  2.2765         0.218060   
      2. B(C   2,Ru  0)                  1.8500         1.166792   
      3. B(H   3,C   2)                  1.0926         0.356701   
      4. B(C   4,O   1)                  1.4772         0.406281   
      5. B(H   5,C   4)                  1.0973         0.350576   
      6. B(C   6,C   4)                  1.5174         0.391234   
      7. B(H   7,C   6)                  1.0931         0.356064   
      8. B(H   8,C   6)                  1.0948         0.353798   
      9. B(H   9,C   6)                  1.0931         0.355981   
     10. B(C  10,C   4)                  1.5133         0.397217   
     11. B(H  11,C  10)                  1.0954         0.353048   
     12. B(H  12,C  10)                  1.0943         0.354409   
     13. B(H  13,C  10)                  1.0922         0.357148   
     14. B(C  14,O   1)                  1.3645         0.614624   
     15. B(C  15,C  14)                  1.3888         0.627604   
     16. B(H  16,C  15)                  1.0827         0.369883   
     17. B(C  17,C  15)                  1.3934         0.617086   
     18. B(H  18,C  17)                  1.0859         0.365624   
     19. B(C  19,C  17)                  1.3945         0.614569   
     20. B(H  20,C  19)                  1.0849         0.366901   
     21. B(C  21,C  19)                  1.3839         0.639028   
     22. B(H  22,C  21)                  1.0864         0.364922   
     23. B(C  23,C  21)                  1.4061         0.588898   
     24. B(C  23,C  14)                  1.4136         0.572896   
     25. B(C  23,C   2)                  1.4299         0.539678   
     26. B(Cl 24,Ru  0)                  2.3181         0.468984   
     27. B(Cl 25,Ru  0)                  2.3246         0.457810   
     28. B(C  26,Ru  0)                  1.8071         1.365774   
     29. B(O  27,C  26)                  1.1519         1.341872   
     30. A(C   2,Ru  0,Cl 25)          105.9437         0.605378   
     31. A(O   1,Ru  0,Cl 25)           88.4693         0.440205   
     32. A(O   1,Ru  0,C  26)          171.7225         0.520904   
     33. A(O   1,Ru  0,C   2)           79.3302         0.505782   
     34. A(Cl 24,Ru  0,C  26)           94.2369         0.627042   
     35. A(C   2,Ru  0,C  26)           92.3928         0.724030   
     36. A(Cl 24,Ru  0,Cl 25)          148.6598         0.526511   
     37. A(C   2,Ru  0,Cl 24)          103.9343         0.608204   
     38. A(O   1,Ru  0,Cl 24)           87.9209         0.442127   
     39. A(Cl 25,Ru  0,C  26)           93.7667         0.624113   
     40. A(Ru  0,O   1,C  14)          109.5512         0.398569   
     41. A(Ru  0,O   1,C   4)          129.8866         0.370881   
     42. A(C   4,O   1,C  14)          120.1949         0.396838   
     43. A(H   3,C   2,C  23)          117.3810         0.344202   
     44. A(Ru  0,C   2,C  23)          118.3710         0.534626   
     45. A(Ru  0,C   2,H   3)          124.2293         0.439937   
     46. A(C   6,C   4,C  10)          113.1328         0.370112   
     47. A(H   5,C   4,C  10)          109.2504         0.326167   
     48. A(O   1,C   4,C   6)          109.6056         0.369226   
     49. A(O   1,C   4,C  10)          106.7665         0.370191   
     50. A(O   1,C   4,H   5)          105.9558         0.325419   
     51. A(H   5,C   4,C   6)          111.7631         0.325353   
     52. A(C   4,C   6,H   7)          112.1138         0.326186   
     53. A(H   8,C   6,H   9)          109.0561         0.289512   
     54. A(H   7,C   6,H   9)          108.5120         0.289802   
     55. A(C   4,C   6,H   9)          109.7856         0.326173   
     56. A(C   4,C   6,H   8)          109.0886         0.325843   
     57. A(H   7,C   6,H   8)          108.2277         0.289522   
     58. A(H  12,C  10,H  13)          108.8800         0.289739   
     59. A(H  11,C  10,H  13)          109.4866         0.289564   
     60. A(C   4,C  10,H  13)          111.2598         0.327166   
     61. A(H  11,C  10,H  12)          107.8943         0.289215   
     62. A(C   4,C  10,H  12)          108.5464         0.326751   
     63. A(C   4,C  10,H  11)          110.6891         0.326544   
     64. A(O   1,C  14,C  15)          125.3719         0.431496   
     65. A(C  15,C  14,C  23)          120.9765         0.428886   
     66. A(O   1,C  14,C  23)          113.6450         0.424499   
     67. A(H  16,C  15,C  17)          119.5589         0.354232   
     68. A(C  14,C  15,C  17)          118.7746         0.434651   
     69. A(C  14,C  15,H  16)          121.6665         0.355248   
     70. A(H  18,C  17,C  19)          119.8179         0.353293   
     71. A(C  15,C  17,C  19)          121.4331         0.433013   
     72. A(C  15,C  17,H  18)          118.7490         0.353538   
     73. A(C  17,C  19,H  20)          120.1671         0.353502   
     74. A(H  20,C  19,C  21)          120.2910         0.355848   
     75. A(C  17,C  19,C  21)          119.5417         0.435744   
     76. A(H  22,C  21,C  23)          118.6531         0.350639   
     77. A(C  19,C  21,C  23)          120.5945         0.432411   
     78. A(C  19,C  21,H  22)          120.7520         0.355522   
     79. A(C  14,C  23,C  21)          118.6788         0.424024   
     80. A(C   2,C  23,C  21)          122.3005         0.419525   
     81. A(C   2,C  23,C  14)          119.0122         0.417471   
     82. L(Ru  0,C  26,O  27,Cl 25, 2) 176.9706         0.651852   
     83. L(Ru  0,C  26,O  27,Cl 25, 1) 180.4507         0.651852   
     84. D(C  14,O   1,Ru  0,C   2)     -2.6521         0.001740   
     85. D(C   4,O   1,Ru  0,C  26)    169.5494         0.001740   
     86. D(C   4,O   1,Ru  0,C   2)    170.2574         0.001740   
     87. D(C  14,O   1,Ru  0,Cl 25)   -109.1906         0.001740   
     88. D(C  14,O   1,Ru  0,Cl 24)    101.9466         0.001740   
     89. D(C   4,O   1,Ru  0,Cl 25)     63.7189         0.001740   
     90. D(C   4,O   1,Ru  0,Cl 24)    -85.1439         0.001740   
     91. D(C  23,C   2,Ru  0,Cl 25)     87.7834         0.007577   
     92. D(C  23,C   2,Ru  0,O   1)      2.4923         0.007577   
     93. D(H   3,C   2,Ru  0,C  26)      0.7762         0.007577   
     94. D(C  23,C   2,Ru  0,Cl 24)    -82.6443         0.007577   
     95. D(H   3,C   2,Ru  0,O   1)   -179.1218         0.007577   
     96. D(H   3,C   2,Ru  0,Cl 25)    -93.8307         0.007577   
     97. D(H   3,C   2,Ru  0,Cl 24)     95.7417         0.007577   
     98. D(H   5,C   4,O   1,Ru  0)    139.3918         0.014085   
     99. D(C  10,C   4,O   1,Ru  0)     23.0150         0.014085   
    100. D(C   6,C   4,O   1,C  14)     72.4012         0.014085   
    101. D(C   6,C   4,O   1,Ru  0)    -99.8644         0.014085   
    102. D(H   5,C   4,O   1,C  14)    -48.3425         0.014085   
    103. D(H   8,C   6,C   4,C  10)     64.9553         0.012165   
    104. D(H   8,C   6,C   4,H   5)    -58.8652         0.012165   
    105. D(H   8,C   6,C   4,O   1)   -176.0210         0.012165   
    106. D(H   7,C   6,C   4,C  10)   -175.1840         0.012165   
    107. D(H   7,C   6,C   4,H   5)     60.9954         0.012165   
    108. D(H   7,C   6,C   4,O   1)    -56.1604         0.012165   
    109. D(H  12,C  10,C   4,H   5)     63.2110         0.012525   
    110. D(H  11,C  10,C   4,C   6)     56.2611         0.012525   
    111. D(H  12,C  10,C   4,O   1)    177.3731         0.012525   
    112. D(H  11,C  10,C   4,H   5)   -178.5510         0.012525   
    113. D(H  11,C  10,C   4,O   1)    -64.3889         0.012525   
    114. D(H  12,C  10,C   4,C   6)    -61.9769         0.012525   
    115. D(C  23,C  14,O   1,C   4)   -171.5137         0.030548   
    116. D(C  23,C  14,O   1,Ru  0)      2.1950         0.030548   
    117. D(C  15,C  14,O   1,C   4)      9.4217         0.030548   
    118. D(C  15,C  14,O   1,Ru  0)   -176.8696         0.030548   
    119. D(C  17,C  15,C  14,C  23)      0.0979         0.027297   
    120. D(C  17,C  15,C  14,O   1)    179.0985         0.027297   
    121. D(H  16,C  15,C  14,C  23)   -179.9560         0.027297   
    122. D(H  16,C  15,C  14,O   1)     -0.9554         0.027297   
    123. D(C  19,C  17,C  15,H  16)   -179.7711         0.026335   
    124. D(C  19,C  17,C  15,C  14)      0.1761         0.026335   
    125. D(H  18,C  17,C  15,H  16)      0.1884         0.026335   
    126. D(H  18,C  17,C  15,C  14)   -179.8643         0.026335   
    127. D(C  21,C  19,C  17,H  18)    179.7645         0.026108   
    128. D(C  21,C  19,C  17,C  15)     -0.2764         0.026108   
    129. D(H  20,C  19,C  17,H  18)     -0.0776         0.026108   
    130. D(H  20,C  19,C  17,C  15)    179.8814         0.026108   
    131. D(C  23,C  21,C  19,H  20)    179.9424         0.028366   
    132. D(C  23,C  21,C  19,C  17)      0.1005         0.028366   
    133. D(H  22,C  21,C  19,H  20)      0.1910         0.028366   
    134. D(H  22,C  21,C  19,C  17)   -179.6510         0.028366   
    135. D(C  14,C  23,C  21,C  19)      0.1642         0.023861   
    136. D(C   2,C  23,C  21,H  22)      0.9942         0.023861   
    137. D(C   2,C  23,C  21,C  19)   -178.7624         0.023861   
    138. D(C  21,C  23,C  14,C  15)     -0.2655         0.022524   
    139. D(C  21,C  23,C  14,O   1)   -179.3759         0.022524   
    140. D(C   2,C  23,C  14,C  15)    178.6970         0.022524   
    141. D(C   2,C  23,C  14,O   1)     -0.4134         0.022524   
    142. D(C  21,C  23,C   2,H   3)     -1.7537         0.019900   
    143. D(C  21,C  23,C   2,Ru  0)    176.7435         0.019900   
    144. D(C  14,C  23,C   2,H   3)    179.3232         0.019900   
    145. D(C  14,C  23,C  21,H  22)    179.9208         0.023861   
    146. D(C  14,C  23,C   2,Ru  0)     -2.1796         0.019900   
    -----------------------------------------------------------------

Number of atoms                         .... 28
Number of degrees of freedom            .... 146


         *************************************************************
         *                GEOMETRY OPTIMIZATION CYCLE   1            *
         *************************************************************
---------------------------------
CARTESIAN COORDINATES (ANGSTROEM)
---------------------------------
  Ru    -1.053246    0.039292   -0.013507
  O      0.972642   -0.811404   -0.609111
  C      0.053622    1.458108    0.415717
  H     -0.293166    2.398309    0.851026
  C      1.345002   -2.186685   -0.998900
  H      2.051462   -2.083238   -1.832130
  C      1.971862   -2.899394    0.185025
  H      2.833185   -2.356720    0.583052
  H      2.308889   -3.891661   -0.131865
  H      1.233189   -3.011346    0.983001
  C      0.082286   -2.856662   -1.495632
  H     -0.650793   -2.948714   -0.686937
  H      0.334624   -3.865258   -1.837145
  H     -0.359566   -2.302360   -2.326599
  C      1.938745    0.132769   -0.416870
  C      3.283032   -0.016794   -0.731882
  H      3.668981   -0.935944   -1.154320
  C      4.150138    1.047643   -0.493956
  H      5.200719    0.931040   -0.742485
  C      3.696005    2.247281    0.053074
  H      4.389593    3.062208    0.231547
  C      2.355039    2.391422    0.363119
  H      1.979007    3.319343    0.784762
  C      1.450329    1.339833    0.133339
  Cl    -1.495952    0.339170   -2.269079
  Cl    -1.031512   -1.369620    1.835409
  C     -2.529496    0.927693    0.531565
  O     -3.442721    1.529388    0.893382

----------------------------
CARTESIAN COORDINATES (A.U.)
----------------------------
  NO LB      ZA    FRAG     MASS         X           Y           Z
   0 Ru   16.0000*   0   101.070   -1.990346    0.074251   -0.025525
   1 O     8.0000    0    15.999    1.838027   -1.533331   -1.151053
   2 C     6.0000    0    12.011    0.101331    2.755425    0.785591
   3 H     1.0000    0     1.008   -0.554003    4.532147    1.608206
   4 C     6.0000    0    12.011    2.541685   -4.132236   -1.887647
   5 H     1.0000    0     1.008    3.876701   -3.936749   -3.462224
   6 C     6.0000    0    12.011    3.726279   -5.479061    0.349647
   7 H     1.0000    0     1.008    5.353944   -4.453555    1.101809
   8 H     1.0000    0     1.008    4.363168   -7.354173   -0.249189
   9 H     1.0000    0     1.008    2.330389   -5.690619    1.857603
  10 C     6.0000    0    12.011    0.155498   -5.398309   -2.826335
  11 H     1.0000    0     1.008   -1.229821   -5.572262   -1.298123
  12 H     1.0000    0     1.008    0.632348   -7.304279   -3.471701
  13 H     1.0000    0     1.008   -0.679481   -4.350830   -4.396635
  14 C     6.0000    0    12.011    3.663697    0.250897   -0.787770
  15 C     6.0000    0    12.011    6.204031   -0.031736   -1.383057
  16 H     1.0000    0     1.008    6.933369   -1.768678   -2.181349
  17 C     6.0000    0    12.011    7.842624    1.979758   -0.933442
  18 H     1.0000    0     1.008    9.827935    1.759411   -1.403093
  19 C     6.0000    0    12.011    6.984437    4.246746    0.100295
  20 H     1.0000    0     1.008    8.295129    5.786734    0.437560
  21 C     6.0000    0    12.011    4.450379    4.519133    0.686195
  22 H     1.0000    0     1.008    3.739781    6.272649    1.482985
  23 C     6.0000    0    12.011    2.740725    2.531917    0.251974
  24 Cl   17.0000    0    35.453   -2.826940    0.640938   -4.287938
  25 Cl   17.0000    0    35.453   -1.949275   -2.588207    3.468420
  26 C     6.0000    0    12.011   -4.780055    1.753086    1.004512
  27 O     8.0000    0    15.999   -6.505800    2.890124    1.688247
* core charge reduced due to ECP

--------------------------------
INTERNAL COORDINATES (ANGSTROEM)
--------------------------------
 Ru     0   0   0     0.000000000000     0.00000000     0.00000000
 O      1   0   0     2.276543431999     0.00000000     0.00000000
 C      1   2   0     1.849980771104    79.33024195     0.00000000
 H      3   1   2     1.092581238548   124.22931952   180.87823848
 C      2   1   3     1.477154447944   129.88655933   170.25740469
 H      5   2   1     1.097296334774   105.95582636   139.39180636
 C      5   2   1     1.517427422945   109.60557877   260.13558050
 H      7   5   2     1.093068100959   112.11377537   303.83964692
 H      7   5   2     1.094806042237   109.08864847   183.97898716
 H      7   5   2     1.093131624192   109.78559348    64.52942877
 C      5   2   1     1.513295594723   106.76650818    23.01501031
 H     11   5   2     1.095383948198   110.68908851   295.61106429
 H     11   5   2     1.094336093999   108.54640130   177.37310296
 H     11   5   2     1.092240839832   111.25982432    57.58655094
 C      2   1   3     1.364468490885   109.55123490   357.34793341
 C     15   2   1     1.388779748370   125.37186840   183.13038792
 H     16  15   2     1.082703660724   121.66648432   359.04460607
 C     16  15   2     1.393379963858   118.77462405   179.09849951
 H     18  16  15     1.085856049857   118.74897124   180.13565155
 C     18  16  15     1.394492715518   121.43311001     0.17614866
 H     20  18  16     1.084906881166   120.16714344   179.88144362
 C     20  18  16     1.383869337424   119.54165920   359.72360979
 H     22  20  18     1.086379430362   120.75195980   180.34903929
 C     22  20  18     1.406107555424   120.59446323     0.10045417
 Cl     1   2   3     2.318085517082    87.92093660   104.59869080
 Cl     1   2   3     2.324649600597    88.46932923   253.46149423
 C      1   2   3     1.807117562442   171.72246057   359.29195620
 O     27   1   3     1.151923745366   177.65014956   355.87973336

---------------------------
INTERNAL COORDINATES (A.U.)
---------------------------
 Ru     0   0   0     0.000000000000     0.00000000     0.00000000
 O      1   0   0     4.302043618455     0.00000000     0.00000000
 C      1   2   0     3.495957010408    79.33024195     0.00000000
 H      3   1   2     2.064679319915   124.22931952   180.87823848
 C      2   1   3     2.791417364119   129.88655933   170.25740469
 H      5   2   1     2.073589560479   105.95582636   139.39180636
 C      5   2   1     2.867522257468   109.60557877   260.13558050
 H      7   5   2     2.065599356538   112.11377537   303.83964692
 H      7   5   2     2.068883589590   109.08864847   183.97898716
 H      7   5   2     2.065719398052   109.78559348    64.52942877
 C      5   2   1     2.859714233697   106.76650818    23.01501031
 H     11   5   2     2.069975673588   110.68908851   295.61106429
 H     11   5   2     2.067995516123   108.54640130   177.37310296
 H     11   5   2     2.064036059567   111.25982432    57.58655094
 C      2   1   3     2.578471766138   109.55123490   357.34793341
 C     15   2   1     2.624413384755   125.37186840   183.13038792
 H     16  15   2     2.046013402962   121.66648432   359.04460607
 C     16  15   2     2.633106532185   118.77462405   179.09849951
 H     18  16  15     2.051970555091   118.74897124   180.13565155
 C     18  16  15     2.635209328077   121.43311001     0.17614866
 H     20  18  16     2.050176886211   120.16714344   179.88144362
 C     20  18  16     2.615134052862   119.54165920   359.72360979
 H     22  20  18     2.052959600910   120.75195980   180.34903929
 C     22  20  18     2.657158194589   120.59446323     0.10045417
 Cl     1   2   3     4.380546782294    87.92093660   104.59869080
 Cl     1   2   3     4.392951102458    88.46932923   253.46149423
 C      1   2   3     3.414957284814   171.72246057   359.29195620
 O     27   1   3     2.176820405903   177.65014956   355.87973336

---------------------
BASIS SET INFORMATION
---------------------
There are 5 groups of distinct atoms

 Group   1 Type Ru  : 7s7p5d contracted to 6s4p3d pattern {211111/4111/311}
 Group   2 Type O   : 11s6p2d contracted to 5s3p2d pattern {62111/411/11}
 Group   3 Type C   : 11s6p1d contracted to 5s3p1d pattern {62111/411/1}
 Group   4 Type H   : 4s1p contracted to 2s1p pattern {31/1}
 Group   5 Type Cl  : 14s9p2d contracted to 5s4p2d pattern {73211/6111/11}

Atom   0Ru   basis set group =>   1
Atom   1O    basis set group =>   2
Atom   2C    basis set group =>   3
Atom   3H    basis set group =>   4
Atom   4C    basis set group =>   3
Atom   5H    basis set group =>   4
Atom   6C    basis set group =>   3
Atom   7H    basis set group =>   4
Atom   8H    basis set group =>   4
Atom   9H    basis set group =>   4
Atom  10C    basis set group =>   3
Atom  11H    basis set group =>   4
Atom  12H    basis set group =>   4
Atom  13H    basis set group =>   4
Atom  14C    basis set group =>   3
Atom  15C    basis set group =>   3
Atom  16H    basis set group =>   4
Atom  17C    basis set group =>   3
Atom  18H    basis set group =>   4
Atom  19C    basis set group =>   3
Atom  20H    basis set group =>   4
Atom  21C    basis set group =>   3
Atom  22H    basis set group =>   4
Atom  23C    basis set group =>   3
Atom  24Cl   basis set group =>   5
Atom  25Cl   basis set group =>   5
Atom  26C    basis set group =>   3
Atom  27O    basis set group =>   2
---------------------------------
AUXILIARY/J BASIS SET INFORMATION
---------------------------------
There are 5 groups of distinct atoms

 Group   1 Type Ru  : 11s5p5d3f3g contracted to 8s5p5d2f3g pattern {41111111/11111/11111/21/111}
 Group   2 Type O   : 8s3p3d contracted to 6s3p3d pattern {311111/111/111}
 Group   3 Type C   : 8s3p3d contracted to 6s3p3d pattern {311111/111/111}
 Group   4 Type H   : 5s2p1d contracted to 3s1p1d pattern {311/2/1}
 Group   5 Type Cl  : 14s5p5d2f contracted to 8s4p3d1f pattern {71111111/2111/311/2}

Atom   0Ru   basis set group =>   1
Atom   1O    basis set group =>   2
Atom   2C    basis set group =>   3
Atom   3H    basis set group =>   4
Atom   4C    basis set group =>   3
Atom   5H    basis set group =>   4
Atom   6C    basis set group =>   3
Atom   7H    basis set group =>   4
Atom   8H    basis set group =>   4
Atom   9H    basis set group =>   4
Atom  10C    basis set group =>   3
Atom  11H    basis set group =>   4
Atom  12H    basis set group =>   4
Atom  13H    basis set group =>   4
Atom  14C    basis set group =>   3
Atom  15C    basis set group =>   3
Atom  16H    basis set group =>   4
Atom  17C    basis set group =>   3
Atom  18H    basis set group =>   4
Atom  19C    basis set group =>   3
Atom  20H    basis set group =>   4
Atom  21C    basis set group =>   3
Atom  22H    basis set group =>   4
Atom  23C    basis set group =>   3
Atom  24Cl   basis set group =>   5
Atom  25Cl   basis set group =>   5
Atom  26C    basis set group =>   3
Atom  27O    basis set group =>   2
-------------------------
ECP PARAMETER INFORMATION
-------------------------

 Group 1, Type Ru ECP Def2-ECP (replacing 28 core electrons, lmax=3)

Atom   0Ru   ECP group =>   1



           ************************************************************
           *        Program running with 20 parallel MPI-processes    *
           *              working on a common directory               *
           ************************************************************
------------------------------------------------------------------------------
                             ORCA STARTUP CALCULATIONS
                           -- RI-GTO INTEGRALS CHOSEN --
------------------------------------------------------------------------------
------------------------------------------------------------------------------
                   ___                                                        
                  /   \      - P O W E R E D   B Y -                         
                 /     \                                                     
                 |  |  |   _    _      __       _____    __    __             
                 |  |  |  | |  | |    /  \     |  _  \  |  |  /  |          
                  \  \/   | |  | |   /    \    | | | |  |  | /  /          
                 / \  \   | |__| |  /  /\  \   | |_| |  |  |/  /          
                |  |  |   |  __  | /  /__\  \  |    /   |      \           
                |  |  |   | |  | | |   __   |  |    \   |  |\   \          
                \     /   | |  | | |  |  |  |  | |\  \  |  | \   \       
                 \___/    |_|  |_| |__|  |__|  |_| \__\ |__|  \__/        
                                                                              
                      - O R C A' S   B I G   F R I E N D -                    
                                      &                                       
                       - I N T E G R A L  F E E D E R -                       
                                                                              
 v1 FN, 2020, v2 2021, v3 2022-2024                                           
------------------------------------------------------------------------------


----------------------
SHARK INTEGRAL PACKAGE
----------------------

Number of atoms                             ...     28
Number of basis functions                   ...    404
Number of shells                            ...    190
Maximum angular momentum                    ...      2
Integral batch strategy                     ... SHARK/LIBINT Hybrid
RI-J (if used) integral strategy            ... SPLIT-RIJ (Revised 2003 algorithm where possible)
Printlevel                                  ...      1
Contraction scheme used                     ... SEGMENTED contraction
Prescreening option                         ... SCHWARTZ
   Thresh                                   ... 2.500e-11
   Tcut                                     ... 2.500e-12
   Tpresel                                  ... 2.500e-12 
Coulomb Range Separation                    ... NOT USED
Exchange Range Separation                   ... NOT USED
Multipole approximations                    ... NOT USED
Finite Nucleus Model                        ... NOT USED
CABS basis                                  ... NOT available
Auxiliary Coulomb fitting basis             ... AVAILABLE
   # of basis functions in Aux-J            ...    695
   # of shells in Aux-J                     ...    271
   Maximum angular momentum in Aux-J        ...      4
Auxiliary J/K fitting basis                 ... NOT available
Auxiliary Correlation fitting basis         ... NOT available
Auxiliary 'external' fitting basis          ... NOT available

Checking pre-screening integrals            ... done (  0.0 sec) Dimension = 190
Check shell pair data                       ... done (  0.0 sec)
Shell pair information
Shell pair cut-off parameter TPreSel        ...   2.5e-12
Total number of shell pairs                 ...     18145
Shell pairs after pre-screening             ...     14277
Total number of primitive shell pairs       ...     67207
Primitive shell pairs kept                  ...     33976
          la=0 lb=0:   4146 shell pairs
          la=1 lb=0:   5275 shell pairs
          la=1 lb=1:   1699 shell pairs
          la=2 lb=0:   1789 shell pairs
          la=2 lb=1:   1151 shell pairs
          la=2 lb=2:    217 shell pairs

Calculating one electron integrals          ... done (  0.0 sec)
Calculating ECP integrals                   ... done (  0.6 sec)
Calculating RI/J V-Matrix + Cholesky decomp.... done (  0.0 sec)
Calculating Nuclear repulsion               ... done (  0.0 sec) ENN=   1533.408986226787 Eh

Diagonalization of the overlap matrix:
Smallest eigenvalue                        ... 2.295e-05
Time for diagonalization                   ...    0.037 sec
Threshold for overlap eigenvalues          ... 1.000e-07
Number of eigenvalues below threshold      ... 0
Time for construction of square roots      ...    0.016 sec
Total time needed                          ...    0.138 sec

-------------------
DFT GRID GENERATION
-------------------

General Integration Accuracy     IntAcc      ... 4.388
Radial Grid Type                 RadialGrid  ... OptM3 with GC (2021)
Angular Grid (max. ang.)         AngularGrid ... 4 (Lebedev-302)
Angular grid pruning method      GridPruning ... 4 (adaptive)
Weight generation scheme         WeightScheme... mBecke (2022)
Basis function cutoff            BFCut       ... 1.0000e-11
Integration weight cutoff        WCut        ... 1.0000e-14
Partially contracted basis set               ... off
Rotationally invariant grid construction     ... off
Angular grids for H and He will be reduced by one unit
Diffuse basis detected: some atoms will have their outermost
                        angular grid increased by 1.

Total number of grid points                  ...   141357
Total number of batches                      ...     2223
Average number of points per batch           ...       63
Average number of grid points per atom       ...     5048
Initializing property integral containers    ... done (  5.5 sec)

SHARK setup successfully completed in   8.5 seconds

Maximum memory used throughout the entire STARTUP-calculation: 48.7 MB


           ************************************************************
           *        Program running with 20 parallel MPI-processes    *
           *              working on a common directory               *
           ************************************************************
-------------------------------------------------------------------------------
                                 ORCA GUESS
                   Start orbitals & Density for SCF / CASSCF
-------------------------------------------------------------------------------

------------
SCF SETTINGS
------------
Hamiltonian:
 Density Functional     Method          .... DFT(GTOs)
  Functional kind                       .... Exchange
  Functional name                       .... Re-regularized SCAN exchange by Furness et al
  Functional family                     .... MGGA
  Functional refs                              
    [ 0] J. W. Furness, A. D. Kaplan, J. Ning, J. P. Perdew, and J. Sun.,  J. Phys. Chem. Lett. 11, 8208-8215 (2020), doi: 10.1021/acs.jpclett.0c02405
    [ 1] J. W. Furness, A. D. Kaplan, J. Ning, J. P. Perdew, and J. Sun.,  J. Phys. Chem. Lett. 11, 9248-9248 (2020), doi: 10.1021/acs.jpclett.0c03077
  Functional external parameters        .... 6
    Parameter  0 _c1        =  6.670000e-01 : c1 parameter        
    Parameter  1 _c2        =  8.000000e-01 : c2 parameter        
    Parameter  2 _d         =  1.240000e+00 : d parameter         
    Parameter  3 _k1        =  6.500000e-02 : k1 parameter        
    Parameter  4 _eta       =  1.000000e-03 : eta parameter       
    Parameter  5 _dp2       =  3.610000e-01 : dp2 parameter       
  Functional kind                       .... Correlation
  Functional name                       .... Re-regularized SCAN correlation by Furness et al
  Functional family                     .... MGGA
  Functional refs                              
    [ 0] J. W. Furness, A. D. Kaplan, J. Ning, J. P. Perdew, and J. Sun.,  J. Phys. Chem. Lett. 11, 8208-8215 (2020), doi: 10.1021/acs.jpclett.0c02405
    [ 1] J. W. Furness, A. D. Kaplan, J. Ning, J. P. Perdew, and J. Sun.,  J. Phys. Chem. Lett. 11, 9248-9248 (2020), doi: 10.1021/acs.jpclett.0c03077
  Functional external parameters        .... 1
    Parameter  0 _eta       =  1.000000e-03 : Regularization parameter
 Gradients option       PostSCFGGA      .... off
 RI-approximation to the Coulomb term is turned on
   Number of AuxJ basis functions       .... 695


General Settings:
 Integral files         IntName         .... cli47
 Hartree-Fock type      HFTyp           .... RHF
 Total Charge           Charge          ....    0
 Multiplicity           Mult            ....    1
 Number of Electrons    NEL             ....  144
 Basis Dimension        Dim             ....  404
 Nuclear Repulsion      ENuc            ....   1533.4089862268 Eh

Convergence Acceleration:
 AO-DIIS                CNVDIIS         .... on
   Start iteration      DIISMaxIt       ....    12
   Startup error        DIISStart       ....  0.200000
   # of expansion vecs  DIISMaxEq       ....     5
   Bias factor          DIISBfac        ....   1.050
   Max. coefficient     DIISMaxC        ....  10.000
 MO-DIIS                CNVKDIIS        .... off
 Trust-Rad. Augm. Hess. CNVTRAH         .... auto
   Auto Start mean grad. ratio tolernc. ....  1.125000
   Auto Start start iteration           ....     1
   Auto Start num. interpolation iter.  ....    10
   Max. Number of Micro iterations      ....    24
   Max. Number of Macro iterations      .... Maxiter - #DIIS iter
   Number of Davidson start vectors     ....     2
   Converg. threshold    (grad. norm)   ....   1.000e-05
   Grad. Scal. Fac. for Micro threshold ....   0.100
   Minimum threshold for Micro iter.    ....   1.000e-02
   NR start threshold (gradient norm)   ....   1.000e-04
   Initial trust radius                 ....   0.400
   Minimum AH scaling param. (alpha)    ....   1.000
   Maximum AH scaling param. (alpha)    .... 1000.000
   Quad. conv. algorithm                .... NR
   White noise on init. David. guess    .... on
   Maximum white noise                  ....   0.010
   Pseudo random numbers                .... off
   Inactive MOs                         .... canonical
   Orbital update algorithm             .... Taylor
   Preconditioner                       .... Diag
   Full preconditioner red. dimension   ....   250
   COSX micro iterations for RIJONX calc.... off
 SOSCF                  CNVSOSCF        .... on
   Start iteration      SOSCFMaxIt      ....   150
   Startup grad/error   SOSCFStart      ....  0.003300
   Hessian update       SOSCFHessUp     .... L-BFGS
 Level Shifting         CNVShift        .... on
   Level shift para.    LevelShift      ....    0.2500
   Turn off err/grad.   ShiftErr        ....    0.0010
 Zerner damping         CNVZerner       .... off
 Static damping         CNVDamp         .... on
   Fraction old density DampFac         ....    0.7000
   Max. Damping (<1)    DampMax         ....    0.9800
   Min. Damping (>=0)   DampMin         ....    0.0000
   Turn off err/grad.   DampErr         ....    0.1000

SCF Procedure:
 Maximum # iterations   MaxIter         ....   500
 SCF integral mode      SCFMode         .... Direct
   Integral package                     .... SHARK and LIBINT hybrid scheme
 Reset frequency        DirectResetFreq ....    20
 Integral Threshold     Thresh          ....  2.500e-11 Eh
 Primitive CutOff       TCut            ....  2.500e-12 Eh

Convergence Tolerance:
 Convergence Check Mode ConvCheckMode   .... Total+1el-Energy
 Convergence forced     ConvForced      .... 0
 Energy Change          TolE            ....  1.000e-08 Eh
 1-El. energy change                    ....  1.000e-05 Eh
 Orbital Gradient       TolG            ....  1.000e-05
 Orbital Rotation angle TolX            ....  1.000e-05
 DIIS Error             TolErr          ....  5.000e-07

---------------------
INITIAL GUESS: MOREAD
---------------------
Guess MOs are being read from file: restart.gbw
Input geometry compatible with but different from current geometry
Input basis set matches current basis set (good)
Occupation numbers will be reassigned to an Aufbau configuration
MOs were renormalized
MOs were reorthogonalized (Cholesky)
                      ------------------
                      INITIAL GUESS DONE (   0.3 sec)
                      ------------------
             **** ENERGY FILE WAS UPDATED (cli47.en.tmp) ****
Finished Guess after   1.8 sec
Maximum memory used throughout the entire GUESS-calculation: 28.6 MB


           ************************************************************
           *        Program running with 20 parallel MPI-processes    *
           *              working on a common directory               *
           ************************************************************

-------------------------------------------------------------------------------------------
                                      ORCA LEAN-SCF
                              memory conserving SCF solver
-------------------------------------------------------------------------------------------

----------------------------------------D-I-I-S--------------------------------------------
Iteration    Energy (Eh)           Delta-E    RMSDP     MaxDP     DIISErr   Damp  Time(sec)
-------------------------------------------------------------------------------------------
               ***  Starting incremental Fock matrix formation  ***
                              *** Initializing SOSCF ***
---------------------------------------S-O-S-C-F--------------------------------------
Iteration    Energy (Eh)           Delta-E    RMSDP     MaxDP     MaxGrad    Time(sec)
--------------------------------------------------------------------------------------
    1    -1592.1775441217898788     0.00e+00  1.60e-06  9.51e-05  1.65e-07     1.9
               *** Restarting incremental Fock matrix formation ***
    2    -1592.1775441218107972    -2.09e-11  3.75e-07  2.21e-05  3.63e-07     1.4
                  *** Gradient check signals convergence ***

               *****************************************************
               *                     SUCCESS                       *
               *           SCF CONVERGED AFTER   2 CYCLES          *
               *****************************************************

             **** ENERGY FILE WAS UPDATED (cli47.en.tmp) ****

----------------
TOTAL SCF ENERGY
----------------

Total Energy       :      -1592.17754412181080 Eh          -43325.35359 eV

Components:
Nuclear Repulsion  :       1533.40898622678719 Eh           41726.17983 eV
Electronic Energy  :      -3125.58653034859799 Eh          -85051.53343 eV
One Electron Energy:      -5270.40827770629221 Eh         -143415.10032 eV
Two Electron Energy:       2144.82174735769422 Eh           58363.56689 eV

Virial components:
Potential Energy   :      -3118.65151631198887 Eh          -84862.82210 eV
Kinetic Energy     :       1526.47397219017807 Eh           41537.46851 eV
Virial Ratio       :          2.04304270700231

DFT components:
N(Alpha)           :       72.000040115472 electrons
N(Beta)            :       72.000040115472 electrons
N(Total)           :      144.000080230945 electrons
E(X)               :     -142.698837869731 Eh       
E(C)               :       -5.014362630443 Eh       
E(XC)              :     -147.713200500174 Eh       

---------------
SCF CONVERGENCE
---------------

  Last Energy change         ...    2.0918e-11  Tolerance :   1.0000e-08
  Last MAX-Density change    ...    2.2074e-05  Tolerance :   1.0000e-07
  Last RMS-Density change    ...    3.7506e-07  Tolerance :   5.0000e-09
  Last DIIS Error            ...    1.2223e-06  Tolerance :   5.0000e-07
  Last Orbital Gradient      ...    3.6270e-07  Tolerance :   1.0000e-05
  Last Orbital Rotation      ...    1.3131e-06  Tolerance :   1.0000e-05


----------------
ORBITAL ENERGIES
----------------

  NO   OCC          E(Eh)            E(eV) 
   0   2.0000    -101.175241     -2753.1183 
   1   2.0000    -101.174313     -2753.0930 
   2   2.0000     -19.042558      -518.1743 
   3   2.0000     -19.024612      -517.6860 
   4   2.0000     -10.151999      -276.2499 
   5   2.0000     -10.137242      -275.8484 
   6   2.0000     -10.128925      -275.6220 
   7   2.0000     -10.094718      -274.6912 
   8   2.0000     -10.077277      -274.2166 
   9   2.0000     -10.074588      -274.1435 
  10   2.0000     -10.073353      -274.1099 
  11   2.0000     -10.070912      -274.0434 
  12   2.0000     -10.062454      -273.8133 
  13   2.0000     -10.044288      -273.3190 
  14   2.0000     -10.042634      -273.2740 
  15   2.0000      -9.330161      -253.8866 
  16   2.0000      -9.329190      -253.8602 
  17   2.0000      -7.073646      -192.4837 
  18   2.0000      -7.072757      -192.4595 
  19   2.0000      -7.068419      -192.3415 
  20   2.0000      -7.067415      -192.3141 
  21   2.0000      -7.067125      -192.3063 
  22   2.0000      -7.066110      -192.2786 
  23   2.0000      -3.024098       -82.2899 
  24   2.0000      -1.877344       -51.0851 
  25   2.0000      -1.873309       -50.9753 
  26   2.0000      -1.872421       -50.9512 
  27   2.0000      -1.092517       -29.7289 
  28   2.0000      -1.075999       -29.2794 
  29   2.0000      -0.860942       -23.4274 
  30   2.0000      -0.795605       -21.6495 
  31   2.0000      -0.772448       -21.0194 
  32   2.0000      -0.739618       -20.1260 
  33   2.0000      -0.733259       -19.9530 
  34   2.0000      -0.725614       -19.7450 
  35   2.0000      -0.682706       -18.5774 
  36   2.0000      -0.665744       -18.1158 
  37   2.0000      -0.635889       -17.3034 
  38   2.0000      -0.583456       -15.8767 
  39   2.0000      -0.573283       -15.5998 
  40   2.0000      -0.545486       -14.8434 
  41   2.0000      -0.530587       -14.4380 
  42   2.0000      -0.493927       -13.4404 
  43   2.0000      -0.481520       -13.1028 
  44   2.0000      -0.463954       -12.6248 
  45   2.0000      -0.452425       -12.3111 
  46   2.0000      -0.443936       -12.0801 
  47   2.0000      -0.434917       -11.8347 
  48   2.0000      -0.428346       -11.6559 
  49   2.0000      -0.424514       -11.5516 
  50   2.0000      -0.411887       -11.2080 
  51   2.0000      -0.406239       -11.0543 
  52   2.0000      -0.390312       -10.6209 
  53   2.0000      -0.385115       -10.4795 
  54   2.0000      -0.381314       -10.3761 
  55   2.0000      -0.375305       -10.2126 
  56   2.0000      -0.357426        -9.7261 
  57   2.0000      -0.357048        -9.7158 
  58   2.0000      -0.349111        -9.4998 
  59   2.0000      -0.342365        -9.3162 
  60   2.0000      -0.340371        -9.2620 
  61   2.0000      -0.334572        -9.1042 
  62   2.0000      -0.331242        -9.0136 
  63   2.0000      -0.300580        -8.1792 
  64   2.0000      -0.298643        -8.1265 
  65   2.0000      -0.274616        -7.4727 
  66   2.0000      -0.274397        -7.4667 
  67   2.0000      -0.272401        -7.4124 
  68   2.0000      -0.248074        -6.7504 
  69   2.0000      -0.244460        -6.6521 
  70   2.0000      -0.218903        -5.9567 
  71   2.0000      -0.213256        -5.8030 
  72   0.0000      -0.128207        -3.4887 
  73   0.0000      -0.110252        -3.0001 
  74   0.0000      -0.069528        -1.8919 
  75   0.0000      -0.055763        -1.5174 
  76   0.0000      -0.030273        -0.8238 
  77   0.0000      -0.022633        -0.6159 
  78   0.0000      -0.013492        -0.3671 
  79   0.0000       0.034673         0.9435 
  80   0.0000       0.043265         1.1773 
  81   0.0000       0.053778         1.4634 
  82   0.0000       0.058730         1.5981 
*Only the first 10 virtual orbitals were printed.

                    ********************************
                    * MULLIKEN POPULATION ANALYSIS *
                    ********************************

-----------------------
MULLIKEN ATOMIC CHARGES
-----------------------
   0 Ru:    0.106897
   1 O :   -0.091682
   2 C :   -0.103343
   3 H :    0.149302
   4 C :   -0.072570
   5 H :    0.153562
   6 C :   -0.418894
   7 H :    0.155040
   8 H :    0.159725
   9 H :    0.192886
  10 C :   -0.463992
  11 H :    0.181327
  12 H :    0.152869
  13 H :    0.193397
  14 C :    0.264871
  15 C :   -0.254632
  16 H :    0.153978
  17 C :   -0.123159
  18 H :    0.153773
  19 C :   -0.154223
  20 H :    0.153607
  21 C :   -0.206039
  22 H :    0.151254
  23 C :    0.012549
  24 Cl:   -0.368145
  25 Cl:   -0.381267
  26 C :    0.593716
  27 O :   -0.290806
Sum of atomic charges:   -0.0000000

--------------------------------
MULLIKEN REDUCED ORBITAL CHARGES
--------------------------------
  0 Rus       :     2.670784  s :     2.670784
      pz      :     2.185752  p :     6.566436
      px      :     2.217410
      py      :     2.163274
      dz2     :     1.178558  d :     6.655884
      dxz     :     1.500068
      dyz     :     1.305648
      dx2y2   :     1.518918
      dxy     :     1.152692

  1 O s       :     3.658201  s :     3.658201
      pz      :     1.761108  p :     4.349516
      px      :     1.442345
      py      :     1.146063
      dz2     :     0.008373  d :     0.083966
      dxz     :     0.017935
      dyz     :     0.015430
      dx2y2   :     0.024255
      dxy     :     0.017972

  2 C s       :     3.155471  s :     3.155471
      pz      :     0.866320  p :     2.909333
      px      :     1.028519
      py      :     1.014494
      dz2     :     0.003202  d :     0.038539
      dxz     :     0.007064
      dyz     :     0.004828
      dx2y2   :     0.015493
      dxy     :     0.007951

  3 H s       :     0.831469  s :     0.831469
      pz      :     0.004822  p :     0.019228
      px      :     0.004354
      py      :     0.010053

  4 C s       :     3.230161  s :     3.230161
      pz      :     0.987861  p :     2.778218
      px      :     1.040953
      py      :     0.749404
      dz2     :     0.010146  d :     0.064190
      dxz     :     0.014029
      dyz     :     0.013169
      dx2y2   :     0.015365
      dxy     :     0.011480

  5 H s       :     0.829078  s :     0.829078
      pz      :     0.008269  p :     0.017360
      px      :     0.006823
      py      :     0.002268

  6 C s       :     3.305260  s :     3.305260
      pz      :     0.986629  p :     3.086959
      px      :     1.079717
      py      :     1.020613
      dz2     :     0.004224  d :     0.026676
      dxz     :     0.008476
      dyz     :     0.005338
      dx2y2   :     0.003979
      dxy     :     0.004659

  7 H s       :     0.826600  s :     0.826600
      pz      :     0.004727  p :     0.018360
      px      :     0.008255
      py      :     0.005378

  8 H s       :     0.822267  s :     0.822267
      pz      :     0.003926  p :     0.018008
      px      :     0.004389
      py      :     0.009693

  9 H s       :     0.788875  s :     0.788875
      pz      :     0.007729  p :     0.018239
      px      :     0.007071
      py      :     0.003440

 10 C s       :     3.351911  s :     3.351911
      pz      :     1.085197  p :     3.085196
      px      :     0.949053
      py      :     1.050946
      dz2     :     0.003409  d :     0.026885
      dxz     :     0.008725
      dyz     :     0.004122
      dx2y2   :     0.005356
      dxy     :     0.005272

 11 H s       :     0.800412  s :     0.800412
      pz      :     0.007703  p :     0.018262
      px      :     0.006910
      py      :     0.003649

 12 H s       :     0.829066  s :     0.829066
      pz      :     0.004454  p :     0.018065
      px      :     0.003688
      py      :     0.009923

 13 H s       :     0.788307  s :     0.788307
      pz      :     0.007793  p :     0.018296
      px      :     0.004827
      py      :     0.005676

 14 C s       :     3.121303  s :     3.121303
      pz      :     0.891108  p :     2.540757
      px      :     0.774669
      py      :     0.874980
      dz2     :     0.006854  d :     0.073069
      dxz     :     0.013513
      dyz     :     0.010509
      dx2y2   :     0.019104
      dxy     :     0.023090

 15 C s       :     3.239865  s :     3.239865
      pz      :     1.055678  p :     2.977872
      px      :     0.936566
      py      :     0.985627
      dz2     :     0.003408  d :     0.036895
      dxz     :     0.006587
      dyz     :     0.004236
      dx2y2   :     0.012832
      dxy     :     0.009833

 16 H s       :     0.825937  s :     0.825937
      pz      :     0.005721  p :     0.020085
      px      :     0.004379
      py      :     0.009985

 17 C s       :     3.199903  s :     3.199903
      pz      :     0.948904  p :     2.884214
      px      :     1.020057
      py      :     0.915253
      dz2     :     0.004291  d :     0.039043
      dxz     :     0.004062
      dyz     :     0.007283
      dx2y2   :     0.012267
      dxy     :     0.011141

 18 H s       :     0.827041  s :     0.827041
      pz      :     0.004272  p :     0.019186
      px      :     0.011651
      py      :     0.003264

 19 C s       :     3.188108  s :     3.188108
      pz      :     0.989790  p :     2.928090
      px      :     0.960657
      py      :     0.977643
      dz2     :     0.004138  d :     0.038025
      dxz     :     0.005898
      dyz     :     0.004679
      dx2y2   :     0.011190
      dxy     :     0.012121

 20 H s       :     0.827033  s :     0.827033
      pz      :     0.004269  p :     0.019360
      px      :     0.006780
      py      :     0.008311

 21 C s       :     3.235816  s :     3.235816
      pz      :     0.977334  p :     2.931469
      px      :     0.944414
      py      :     1.009721
      dz2     :     0.003270  d :     0.038755
      dxz     :     0.007657
      dyz     :     0.004013
      dx2y2   :     0.011115
      dxy     :     0.012700

 22 H s       :     0.829419  s :     0.829419
      pz      :     0.005207  p :     0.019327
      px      :     0.004118
      py      :     0.010002

 23 C s       :     3.242020  s :     3.242020
      pz      :     1.006409  p :     2.696914
      px      :     0.777557
      py      :     0.912948
      dz2     :     0.004755  d :     0.048517
      dxz     :     0.007135
      dyz     :     0.007159
      dx2y2   :     0.014859
      dxy     :     0.014609

 24 Cls       :     5.964931  s :     5.964931
      pz      :     3.565042  p :    11.372708
      px      :     3.916713
      py      :     3.890953
      dz2     :     0.010855  d :     0.030505
      dxz     :     0.008946
      dyz     :     0.008472
      dx2y2   :     0.001053
      dxy     :     0.001180

 25 Cls       :     5.964849  s :     5.964849
      pz      :     3.729265  p :    11.386153
      px      :     3.925803
      py      :     3.731084
      dz2     :     0.009916  d :     0.030266
      dxz     :     0.005222
      dyz     :     0.008259
      dx2y2   :     0.002460
      dxy     :     0.004408

 26 C s       :     3.175193  s :     3.175193
      pz      :     0.711121  p :     2.147941
      px      :     0.728362
      py      :     0.708458
      dz2     :     0.010972  d :     0.083151
      dxz     :     0.019365
      dyz     :     0.009834
      dx2y2   :     0.025404
      dxy     :     0.017576

 27 O s       :     3.876711  s :     3.876711
      pz      :     1.501132  p :     4.377973
      px      :     1.412905
      py      :     1.463937
      dz2     :     0.004079  d :     0.036122
      dxz     :     0.008021
      dyz     :     0.003854
      dx2y2   :     0.008629
      dxy     :     0.011538



                     *******************************
                     * LOEWDIN POPULATION ANALYSIS *
                     *******************************

----------------------
LOEWDIN ATOMIC CHARGES
----------------------
   0 Ru:   -0.392211
   1 O :   -0.681744
   2 C :   -0.031231
   3 H :    0.183375
   4 C :    0.086137
   5 H :    0.182643
   6 C :   -0.378843
   7 H :    0.167044
   8 H :    0.165427
   9 H :    0.180313
  10 C :   -0.371561
  11 H :    0.179181
  12 H :    0.168419
  13 H :    0.181018
  14 C :    0.248911
  15 C :   -0.155738
  16 H :    0.181872
  17 C :   -0.125204
  18 H :    0.174748
  19 C :   -0.171968
  20 H :    0.174737
  21 C :   -0.109337
  22 H :    0.179321
  23 C :   -0.055985
  24 Cl:   -0.037107
  25 Cl:   -0.049720
  26 C :    0.345661
  27 O :   -0.238158

-------------------------------
LOEWDIN REDUCED ORBITAL CHARGES
-------------------------------
  0 Rus       :     2.287764  s :     2.287764
      pz      :     2.407483  p :     6.961584
      px      :     2.263894
      py      :     2.290207
      dz2     :     1.325005  d :     7.142863
      dxz     :     1.545717
      dyz     :     1.398223
      dx2y2   :     1.560254
      dxy     :     1.313665

  1 O s       :     3.428868  s :     3.428868
      pz      :     1.748814  p :     4.657920
      px      :     1.544350
      py      :     1.364756
      dz2     :     0.065871  d :     0.594957
      dxz     :     0.090362
      dyz     :     0.112759
      dx2y2   :     0.158947
      dxy     :     0.167019

  2 C s       :     2.965868  s :     2.965868
      pz      :     0.878879  p :     2.990795
      px      :     1.046036
      py      :     1.065880
      dz2     :     0.005250  d :     0.074569
      dxz     :     0.012716
      dyz     :     0.008825
      dx2y2   :     0.032118
      dxy     :     0.015660

  3 H s       :     0.771012  s :     0.771012
      pz      :     0.010972  p :     0.045613
      px      :     0.009969
      py      :     0.024672

  4 C s       :     2.837530  s :     2.837530
      pz      :     1.052910  p :     2.944503
      px      :     1.068584
      py      :     0.823008
      dz2     :     0.019032  d :     0.131830
      dxz     :     0.030340
      dyz     :     0.026914
      dx2y2   :     0.031017
      dxy     :     0.024526

  5 H s       :     0.775942  s :     0.775942
      pz      :     0.019699  p :     0.041415
      px      :     0.016144
      py      :     0.005573

  6 C s       :     2.966851  s :     2.966851
      pz      :     1.101462  p :     3.351227
      px      :     1.142452
      py      :     1.107312
      dz2     :     0.009413  d :     0.060765
      dxz     :     0.019390
      dyz     :     0.011737
      dx2y2   :     0.009342
      dxy     :     0.010882

  7 H s       :     0.789057  s :     0.789057
      pz      :     0.010743  p :     0.043899
      px      :     0.020274
      py      :     0.012882

  8 H s       :     0.791236  s :     0.791236
      pz      :     0.009184  p :     0.043337
      px      :     0.010019
      py      :     0.024133

  9 H s       :     0.774769  s :     0.774769
      pz      :     0.019380  p :     0.044918
      px      :     0.017894
      py      :     0.007644

 10 C s       :     2.962659  s :     2.962659
      pz      :     1.149894  p :     3.348459
      px      :     1.077795
      py      :     1.120769
      dz2     :     0.007251  d :     0.060443
      dxz     :     0.019834
      dyz     :     0.009418
      dx2y2   :     0.012763
      dxy     :     0.011177

 11 H s       :     0.776401  s :     0.776401
      pz      :     0.019546  p :     0.044418
      px      :     0.016905
      py      :     0.007967

 12 H s       :     0.788315  s :     0.788315
      pz      :     0.010104  p :     0.043266
      px      :     0.008592
      py      :     0.024571

 13 H s       :     0.773923  s :     0.773923
      pz      :     0.020168  p :     0.045058
      px      :     0.011194
      py      :     0.013696

 14 C s       :     2.765387  s :     2.765387
      pz      :     0.910615  p :     2.830347
      px      :     0.987817
      py      :     0.931914
      dz2     :     0.014461  d :     0.155355
      dxz     :     0.025542
      dyz     :     0.021040
      dx2y2   :     0.043445
      dxy     :     0.050867

 15 C s       :     2.889584  s :     2.889584
      pz      :     1.042517  p :     3.188227
      px      :     1.046040
      py      :     1.099670
      dz2     :     0.005767  d :     0.077927
      dxz     :     0.012623
      dyz     :     0.008032
      dx2y2   :     0.027856
      dxy     :     0.023650

 16 H s       :     0.771906  s :     0.771906
      pz      :     0.013049  p :     0.046222
      px      :     0.009756
      py      :     0.023416

 17 C s       :     2.908338  s :     2.908338
      pz      :     0.964543  p :     3.134739
      px      :     1.096211
      py      :     1.073984
      dz2     :     0.007551  d :     0.082128
      dxz     :     0.007671
      dyz     :     0.014163
      dx2y2   :     0.028148
      dxy     :     0.024595

 18 H s       :     0.781101  s :     0.781101
      pz      :     0.009314  p :     0.044151
      px      :     0.027749
      py      :     0.007087

 19 C s       :     2.903622  s :     2.903622
      pz      :     1.011258  p :     3.187139
      px      :     1.092068
      py      :     1.083813
      dz2     :     0.007406  d :     0.081206
      dxz     :     0.011631
      dyz     :     0.008893
      dx2y2   :     0.025202
      dxy     :     0.028075

 20 H s       :     0.780709  s :     0.780709
      pz      :     0.009307  p :     0.044554
      px      :     0.015723
      py      :     0.019524

 21 C s       :     2.901373  s :     2.901373
      pz      :     0.970496  p :     3.126393
      px      :     1.083826
      py      :     1.072070
      dz2     :     0.005664  d :     0.081571
      dxz     :     0.014590
      dyz     :     0.007690
      dx2y2   :     0.025453
      dxy     :     0.028174

 22 H s       :     0.776258  s :     0.776258
      pz      :     0.011672  p :     0.044420
      px      :     0.009269
      py      :     0.023480

 23 C s       :     2.841555  s :     2.841555
      pz      :     1.005811  p :     3.114969
      px      :     1.064274
      py      :     1.044884
      dz2     :     0.008942  d :     0.099461
      dxz     :     0.013420
      dyz     :     0.013189
      dx2y2   :     0.031985
      dxy     :     0.031925

 24 Cls       :     5.710528  s :     5.710528
      pz      :     3.536086  p :    11.269543
      px      :     3.877401
      py      :     3.856056
      dz2     :     0.020056  d :     0.057037
      dxz     :     0.018013
      dyz     :     0.015394
      dx2y2   :     0.001773
      dxy     :     0.001800

 25 Cls       :     5.712544  s :     5.712544
      pz      :     3.701342  p :    11.280902
      px      :     3.886109
      py      :     3.693450
      dz2     :     0.017181  d :     0.056274
      dxz     :     0.010620
      dyz     :     0.014609
      dx2y2   :     0.004928
      dxy     :     0.008936

 26 C s       :     2.965390  s :     2.965390
      pz      :     0.752810  p :     2.518633
      px      :     0.953348
      py      :     0.812476
      dz2     :     0.022263  d :     0.170316
      dxz     :     0.039098
      dyz     :     0.019262
      dx2y2   :     0.048828
      dxy     :     0.040865

 27 O s       :     3.545121  s :     3.545121
      pz      :     1.495359  p :     4.517024
      px      :     1.525382
      py      :     1.496283
      dz2     :     0.022594  d :     0.176013
      dxz     :     0.038283
      dyz     :     0.018592
      dx2y2   :     0.039670
      dxy     :     0.056874



                      *****************************
                      * MAYER POPULATION ANALYSIS *
                      *****************************

  NA   - Mulliken gross atomic population
  ZA   - Total nuclear charge
  QA   - Mulliken gross atomic charge
  VA   - Mayer's total valence
  BVA  - Mayer's bonded valence
  FA   - Mayer's free valence

  ATOM       NA         ZA         QA         VA         BVA        FA
  0 Ru    15.8931    16.0000     0.1069     5.5910     5.5910    -0.0000
  1 O      8.0917     8.0000    -0.0917     2.0311     2.0311    -0.0000
  2 C      6.1033     6.0000    -0.1033     3.5337     3.5337    -0.0000
  3 H      0.8507     1.0000     0.1493     0.9587     0.9587    -0.0000
  4 C      6.0726     6.0000    -0.0726     3.6494     3.6494     0.0000
  5 H      0.8464     1.0000     0.1536     0.9495     0.9495    -0.0000
  6 C      6.4189     6.0000    -0.4189     3.7091     3.7091    -0.0000
  7 H      0.8450     1.0000     0.1550     0.9664     0.9664    -0.0000
  8 H      0.8403     1.0000     0.1597     0.9616     0.9616    -0.0000
  9 H      0.8071     1.0000     0.1929     0.9572     0.9572    -0.0000
 10 C      6.4640     6.0000    -0.4640     3.6745     3.6745    -0.0000
 11 H      0.8187     1.0000     0.1813     0.9629     0.9629    -0.0000
 12 H      0.8471     1.0000     0.1529     0.9629     0.9629    -0.0000
 13 H      0.8066     1.0000     0.1934     0.9559     0.9559     0.0000
 14 C      5.7351     6.0000     0.2649     3.9240     3.9240     0.0000
 15 C      6.2546     6.0000    -0.2546     3.7568     3.7568    -0.0000
 16 H      0.8460     1.0000     0.1540     0.9675     0.9675    -0.0000
 17 C      6.1232     6.0000    -0.1232     3.8004     3.8004     0.0000
 18 H      0.8462     1.0000     0.1538     0.9662     0.9662    -0.0000
 19 C      6.1542     6.0000    -0.1542     3.8088     3.8088     0.0000
 20 H      0.8464     1.0000     0.1536     0.9681     0.9681     0.0000
 21 C      6.2060     6.0000    -0.2060     3.7232     3.7232    -0.0000
 22 H      0.8487     1.0000     0.1513     0.9699     0.9699    -0.0000
 23 C      5.9875     6.0000     0.0125     3.8626     3.8626    -0.0000
 24 Cl    17.3681    17.0000    -0.3681     1.0711     1.0711     0.0000
 25 Cl    17.3813    17.0000    -0.3813     1.0550     1.0550    -0.0000
 26 C      5.4063     6.0000     0.5937     3.2654     3.2654     0.0000
 27 O      8.2908     8.0000    -0.2908     2.3362     2.3362     0.0000

  Mayer bond orders larger than 0.100000
B(  0-Ru,  1-O ) :   0.1655 B(  0-Ru,  2-C ) :   1.5535 B(  0-Ru, 24-Cl) :   1.0429 
B(  0-Ru, 25-Cl) :   1.0141 B(  0-Ru, 26-C ) :   1.3315 B(  0-Ru, 27-O ) :   0.1811 
B(  1-O ,  4-C ) :   0.7322 B(  1-O , 14-C ) :   1.0619 B(  2-C ,  3-H ) :   0.9239 
B(  2-C , 23-C ) :   1.0558 B(  4-C ,  5-H ) :   0.9502 B(  4-C ,  6-C ) :   0.9364 
B(  4-C , 10-C ) :   0.9379 B(  6-C ,  7-H ) :   0.9546 B(  6-C ,  8-H ) :   0.9701 
B(  6-C ,  9-H ) :   0.9498 B( 10-C , 11-H ) :   0.9636 B( 10-C , 12-H ) :   0.9515 
B( 10-C , 13-H ) :   0.9593 B( 14-C , 15-C ) :   1.3577 B( 14-C , 23-C ) :   1.4149 
B( 15-C , 16-H ) :   0.9406 B( 15-C , 17-C ) :   1.3578 B( 17-C , 18-H ) :   0.9475 
B( 17-C , 19-C ) :   1.3824 B( 19-C , 20-H ) :   0.9449 B( 19-C , 21-C ) :   1.4236 
B( 21-C , 22-H ) :   0.9432 B( 21-C , 23-C ) :   1.2320 B( 26-C , 27-O ) :   2.1161 


-------
TIMINGS
-------

Total SCF time: 0 days 0 hours 0 min 6 sec 

Total time                  ....       6.152 sec
Sum of individual times     ....       5.448 sec  ( 88.6%)

SCF preparation             ....       1.946 sec  ( 31.6%)
Fock matrix formation       ....       2.581 sec  ( 42.0%)
  Startup                   ....       0.203 sec  (  7.9% of F)
  Split-RI-J                ....       0.502 sec  ( 19.5% of F)
  XC integration            ....       1.681 sec  ( 65.1% of F)
    XC Preparation          ....       0.000 sec  (  0.0% of XC)
    Basis function eval.    ....       0.111 sec  (  6.6% of XC)
    Density eval.           ....       0.336 sec  ( 20.0% of XC)
    XC-Functional eval.     ....       0.044 sec  (  2.6% of XC)
    XC-Potential eval.      ....       0.389 sec  ( 23.1% of XC)
Diagonalization             ....       0.000 sec  (  0.0%)
Density matrix formation    ....       0.167 sec  (  2.7%)
Total Energy calculation    ....       0.079 sec  (  1.3%)
Population analysis         ....       0.168 sec  (  2.7%)
Orbital Transformation      ....       0.116 sec  (  1.9%)
Orbital Orthonormalization  ....       0.000 sec  (  0.0%)
DIIS solution               ....       0.163 sec  (  2.7%)
SOSCF solution              ....       0.227 sec  (  3.7%)
Finished LeanSCF after   6.3 sec

Maximum memory used throughout the entire LEANSCF-calculation: 43.8 MB


-------------------------------------------------------------------------------
                          DFT DISPERSION CORRECTION                            
                                                                               
                                DFTD4 V3.4.0                                   
-------------------------------------------------------------------------------
The R2SCAN3C composite method is recognized
Using three-body term ABC
Active option DFTDOPT                   ...         5   

-------------------------   ----------------
Dispersion correction           -0.014924939
-------------------------   ----------------

------------------   -----------------
gCP correction             0.013667597
------------------   -----------------

-------------------------   --------------------
[...]

  6 C s       :     2.966869  s :     2.966869
      pz      :     1.101498  p :     3.351230
      px      :     1.142440
      py      :     1.107293
      dz2     :     0.009403  d :     0.060763
      dxz     :     0.019392
      dyz     :     0.011746
      dx2y2   :     0.009340
      dxy     :     0.010882

  7 H s       :     0.789057  s :     0.789057
      pz      :     0.010744  p :     0.043897
      px      :     0.020274
      py      :     0.012879

  8 H s       :     0.791231  s :     0.791231
      pz      :     0.009187  p :     0.043335
      px      :     0.010018
      py      :     0.024130

  9 H s       :     0.774771  s :     0.774771
      pz      :     0.019377  p :     0.044913
      px      :     0.017891
      py      :     0.007645

 10 C s       :     2.962656  s :     2.962656
      pz      :     1.149881  p :     3.348452
      px      :     1.077826
      py      :     1.120745
      dz2     :     0.007258  d :     0.060447
      dxz     :     0.019838
      dyz     :     0.009408
      dx2y2   :     0.012765
      dxy     :     0.011177

 11 H s       :     0.776408  s :     0.776408
      pz      :     0.019538  p :     0.044416
      px      :     0.016912
      py      :     0.007966

 12 H s       :     0.788306  s :     0.788306
      pz      :     0.010096  p :     0.043265
      px      :     0.008592
      py      :     0.024577

 13 H s       :     0.773941  s :     0.773941
      pz      :     0.020176  p :     0.045055
      px      :     0.011190
      py      :     0.013688

 14 C s       :     2.765389  s :     2.765389
      pz      :     0.910619  p :     2.830359
      px      :     0.987815
      py      :     0.931925
      dz2     :     0.014460  d :     0.155354
      dxz     :     0.025542
      dyz     :     0.021037
      dx2y2   :     0.043448
      dxy     :     0.050867

 15 C s       :     2.889595  s :     2.889595
      pz      :     1.042524  p :     3.188237
      px      :     1.046036
      py      :     1.099678
      dz2     :     0.005766  d :     0.077922
      dxz     :     0.012620
      dyz     :     0.008030
      dx2y2   :     0.027856
      dxy     :     0.023650

 16 H s       :     0.771905  s :     0.771905
      pz      :     0.013048  p :     0.046222
      px      :     0.009755
      py      :     0.023419

 17 C s       :     2.908361  s :     2.908361
      pz      :     0.964523  p :     3.134728
      px      :     1.096207
      py      :     1.073998
      dz2     :     0.007547  d :     0.082120
      dxz     :     0.007666
      dyz     :     0.014161
      dx2y2   :     0.028148
      dxy     :     0.024597

 18 H s       :     0.781099  s :     0.781099
      pz      :     0.009313  p :     0.044149
      px      :     0.027749
      py      :     0.007087

 19 C s       :     2.903645  s :     2.903645
      pz      :     1.011246  p :     3.187127
      px      :     1.092055
      py      :     1.083826
      dz2     :     0.007404  d :     0.081198
      dxz     :     0.011626
      dyz     :     0.008891
      dx2y2   :     0.025203
      dxy     :     0.028075

 20 H s       :     0.780706  s :     0.780706
      pz      :     0.009305  p :     0.044551
      px      :     0.015722
      py      :     0.019524

 21 C s       :     2.901387  s :     2.901387
      pz      :     0.970482  p :     3.126389
      px      :     1.083817
      py      :     1.072090
      dz2     :     0.005663  d :     0.081567
      dxz     :     0.014587
      dyz     :     0.007689
      dx2y2   :     0.025453
      dxy     :     0.028175

 22 H s       :     0.776257  s :     0.776257
      pz      :     0.011669  p :     0.044417
      px      :     0.009268
      py      :     0.023480

 23 C s       :     2.841562  s :     2.841562
      pz      :     1.005814  p :     3.114964
      px      :     1.064252
      py      :     1.044898
      dz2     :     0.008940  d :     0.099457
      dxz     :     0.013414
      dyz     :     0.013189
      dx2y2   :     0.031988
      dxy     :     0.031926

 24 Cls       :     5.710530  s :     5.710530
      pz      :     3.536095  p :    11.269539
      px      :     3.877375
      py      :     3.856069
      dz2     :     0.020058  d :     0.057037
      dxz     :     0.018011
      dyz     :     0.015393
      dx2y2   :     0.001773
      dxy     :     0.001801

 25 Cls       :     5.712541  s :     5.712541
      pz      :     3.701312  p :    11.280896
      px      :     3.886102
      py      :     3.693482
      dz2     :     0.017184  d :     0.056271
      dxz     :     0.010620
      dyz     :     0.014608
      dx2y2   :     0.004925
      dxy     :     0.008933

 26 C s       :     2.965391  s :     2.965391
      pz      :     0.752740  p :     2.518645
      px      :     0.953316
      py      :     0.812589
      dz2     :     0.022248  d :     0.170311
      dxz     :     0.039092
      dyz     :     0.019268
      dx2y2   :     0.048837
      dxy     :     0.040867

 27 O s       :     3.545137  s :     3.545137
      pz      :     1.495346  p :     4.517018
      px      :     1.525371
      py      :     1.496301
      dz2     :     0.022596  d :     0.176011
      dxz     :     0.038256
      dyz     :     0.018591
      dx2y2   :     0.039670
      dxy     :     0.056899



                      *****************************
                      * MAYER POPULATION ANALYSIS *
                      *****************************

  NA   - Mulliken gross atomic population
  ZA   - Total nuclear charge
  QA   - Mulliken gross atomic charge
  VA   - Mayer's total valence
  BVA  - Mayer's bonded valence
  FA   - Mayer's free valence

  ATOM       NA         ZA         QA         VA         BVA        FA
  0 Ru    15.8931    16.0000     0.1069     5.5911     5.5911     0.0000
  1 O      8.0917     8.0000    -0.0917     2.0311     2.0311    -0.0000
  2 C      6.1034     6.0000    -0.1034     3.5337     3.5337     0.0000
  3 H      0.8507     1.0000     0.1493     0.9587     0.9587     0.0000
  4 C      6.0726     6.0000    -0.0726     3.6494     3.6494    -0.0000
  5 H      0.8464     1.0000     0.1536     0.9495     0.9495    -0.0000
  6 C      6.4189     6.0000    -0.4189     3.7091     3.7091    -0.0000
  7 H      0.8449     1.0000     0.1551     0.9664     0.9664    -0.0000
  8 H      0.8403     1.0000     0.1597     0.9616     0.9616     0.0000
  9 H      0.8071     1.0000     0.1929     0.9572     0.9572     0.0000
 10 C      6.4640     6.0000    -0.4640     3.6748     3.6748     0.0000
 11 H      0.8187     1.0000     0.1813     0.9629     0.9629     0.0000
 12 H      0.8471     1.0000     0.1529     0.9629     0.9629     0.0000
 13 H      0.8066     1.0000     0.1934     0.9558     0.9558     0.0000
 14 C      5.7351     6.0000     0.2649     3.9240     3.9240    -0.0000
 15 C      6.2546     6.0000    -0.2546     3.7568     3.7568    -0.0000
 16 H      0.8460     1.0000     0.1540     0.9675     0.9675    -0.0000
 17 C      6.1232     6.0000    -0.1232     3.8004     3.8004     0.0000
 18 H      0.8462     1.0000     0.1538     0.9662     0.9662     0.0000
 19 C      6.1542     6.0000    -0.1542     3.8088     3.8088     0.0000
 20 H      0.8464     1.0000     0.1536     0.9681     0.9681     0.0000
 21 C      6.2060     6.0000    -0.2060     3.7232     3.7232     0.0000
 22 H      0.8487     1.0000     0.1513     0.9699     0.9699     0.0000
 23 C      5.9875     6.0000     0.0125     3.8626     3.8626     0.0000
 24 Cl    17.3681    17.0000    -0.3681     1.0711     1.0711     0.0000
 25 Cl    17.3813    17.0000    -0.3813     1.0550     1.0550     0.0000
 26 C      5.4063     6.0000     0.5937     3.2653     3.2653     0.0000
 27 O      8.2908     8.0000    -0.2908     2.3362     2.3362    -0.0000

  Mayer bond orders larger than 0.100000
B(  0-Ru,  1-O ) :   0.1655 B(  0-Ru,  2-C ) :   1.5535 B(  0-Ru, 24-Cl) :   1.0430 
B(  0-Ru, 25-Cl) :   1.0141 B(  0-Ru, 26-C ) :   1.3315 B(  0-Ru, 27-O ) :   0.1811 
B(  1-O ,  4-C ) :   0.7322 B(  1-O , 14-C ) :   1.0620 B(  2-C ,  3-H ) :   0.9239 
B(  2-C , 23-C ) :   1.0557 B(  4-C ,  5-H ) :   0.9503 B(  4-C ,  6-C ) :   0.9365 
B(  4-C , 10-C ) :   0.9380 B(  6-C ,  7-H ) :   0.9546 B(  6-C ,  8-H ) :   0.9701 
B(  6-C ,  9-H ) :   0.9498 B( 10-C , 11-H ) :   0.9636 B( 10-C , 12-H ) :   0.9515 
B( 10-C , 13-H ) :   0.9593 B( 14-C , 15-C ) :   1.3576 B( 14-C , 23-C ) :   1.4149 
B( 15-C , 16-H ) :   0.9405 B( 15-C , 17-C ) :   1.3577 B( 17-C , 18-H ) :   0.9475 
B( 17-C , 19-C ) :   1.3824 B( 19-C , 20-H ) :   0.9449 B( 19-C , 21-C ) :   1.4235 
B( 21-C , 22-H ) :   0.9432 B( 21-C , 23-C ) :   1.2320 B( 26-C , 27-O ) :   2.1161 


-------
TIMINGS
-------

Total SCF time: 0 days 0 hours 0 min 12 sec 

Total time                  ....      12.502 sec
Sum of individual times     ....      11.721 sec  ( 93.8%)

SCF preparation             ....       1.834 sec  ( 14.7%)
Fock matrix formation       ....       7.701 sec  ( 61.6%)
  Startup                   ....       0.380 sec  (  4.9% of F)
  Split-RI-J                ....       1.477 sec  ( 19.2% of F)
  XC integration            ....       5.227 sec  ( 67.9% of F)
    XC Preparation          ....       0.000 sec  (  0.0% of XC)
    Basis function eval.    ....       0.470 sec  (  9.0% of XC)
    Density eval.           ....       0.945 sec  ( 18.1% of XC)
    XC-Functional eval.     ....       0.182 sec  (  3.5% of XC)
    XC-Potential eval.      ....       0.861 sec  ( 16.5% of XC)
Diagonalization             ....       0.000 sec  (  0.0%)
Density matrix formation    ....       0.645 sec  (  5.2%)
Total Energy calculation    ....       0.240 sec  (  1.9%)
Population analysis         ....       0.228 sec  (  1.8%)
Orbital Transformation      ....       0.130 sec  (  1.0%)
Orbital Orthonormalization  ....       0.000 sec  (  0.0%)
DIIS solution               ....       0.178 sec  (  1.4%)
SOSCF solution              ....       0.765 sec  (  6.1%)
Finished LeanSCF after  12.6 sec

Maximum memory used throughout the entire LEANSCF-calculation: 44.0 MB


-------------------------------------------------------------------------------
                          DFT DISPERSION CORRECTION                            
                                                                               
                                DFTD4 V3.4.0                                   
-------------------------------------------------------------------------------
The R2SCAN3C composite method is recognized
Using three-body term ABC
Active option DFTDOPT                   ...         5   

-------------------------   ----------------
Dispersion correction           -0.014924276
-------------------------   ----------------

------------------   -----------------
gCP correction             0.013666367
------------------   -----------------

-------------------------   --------------------
FINAL SINGLE POINT ENERGY     -1592.178801772854
-------------------------   --------------------

                                *** OPTIMIZATION RUN DONE ***



           ************************************************************
           *        Program running with 20 parallel MPI-processes    *
           *              working on a common directory               *
           ************************************************************

------------------------------------------------------------------------------
                              ORCA PROPERTY CALCULATIONS
------------------------------------------------------------------------------

GBWName                                 ... cli47.gbw
Number of atoms                         ...     28
Number of basis functions               ...    404
Max core memory                         ...   1400 MB

Electric properties:
Dipole moment                           ... YES
Quadrupole moment                       ...  NO
Static polarizability (Dipole/Dipole)   ...  NO
Static polarizability (Dipole/Quad.)    ...  NO
Static polarizability (Quad./Quad.)     ...  NO
Static polarizability (Velocity)        ...  NO

Atomic electric properties:
Dipole moment                           ...  NO
Quadrupole moment                       ...  NO
Static polarizability                   ...  NO

Choice of electric origin               ... Center of mass
Position of electric origin             ...     0.005560    -0.074853    -0.254662

General magnetic properties:
Magnetizability                         ...  NO

EPR properties:
g-Tensor (aka g-matrix)                 ...  NO
Zero-Field splitting spin-orbit         ...  NO
Zero-field splitting spin-spin          ...  NO
Hyperfine couplings                     ...  NO (   0 nuclei)
Quadrupole couplings                    ...  NO (   0 nuclei)
Contact density                         ...  NO (   0 nuclei)

NMR properties:
Chemical shifts                         ...  NO (   0 nuclei)
Spin-rotation constants                 ...  NO (   0 nuclei)
Spin-spin couplings                     ...  NO (   0 nuclei,    0 pairs)

Choice of magnetic origin               ... GIAO
Position of magnetic origin             ...     0.000000     0.000000     0.000000

Properties with geometric perturbations:
SCF Hessian                             ...  NO
IR spectrum                             ...  NO
VCD spectrum                            ...  NO
X-ray spectroscopy properties:
SCF XES/XAS/RIXS spectra                ...  NO


-------------
DIPOLE MOMENT
-------------

Method             : SCF
Type of density    : Electron Density
Multiplicity       :   1
Irrep              :   0
Energy             : -1592.1775438639913318 Eh
Relativity type    : 
Basis              : AO
                                X                 Y                 Z
Electronic contribution:    -90.883474373      14.138418911      10.838773801
Nuclear contribution   :     93.468396657     -14.373816224     -11.139267554
                        -----------------------------------------
Total Dipole Moment    :      2.584922283      -0.235397313      -0.300493752
                        -----------------------------------------
Magnitude (a.u.)       :      2.612954573
Magnitude (Debye)      :      6.641602708



--------------------
Rotational spectrum 
--------------------
 
Rotational constants in cm-1:             0.016123             0.009972             0.008521 
Rotational constants in MHz :           483.369255           298.954971           255.441980 

Dipole components along the rotational axes: 
x,y,z [a.u.] :    -2.583039    -0.393684    -0.021311 
x,y,z [Debye]:    -6.565563    -1.000666    -0.054169 

 

Dipole moment calculation done in   0.1 sec 

Maximum memory used throughout the entire PROP-calculation: 26.4 MB

--------------------------------
SUGGESTED CITATIONS FOR THIS RUN
--------------------------------

Below you find a list of papers that are relevant to this ORCA run
We neither can nor want to force you to cite these papers, but we appreciate if you do
You receive ORCA, which is the product of decades of hard work by many enthusiastic individuals, for free
The only thing we kindly ask in return is that you cite our papers,
We deeply appreciate it, if you show your appreciation for ORCA by not just citing the generic ORCA reference.

Please note that relegating all ORCA citations to the supporting information does *not* help us.
SI sections are not indexed - citations you put there will not count into any citation statistics
But we need these citations in order to attract the funding resources that allow us to do what we are doing

Therefore, if you are a happy ORCA user, please consider citing a few of the papers listed below in the main body of your paper

In addition to the list printed below, the program has created the file cli47.bibtex that contains the list in bibtex format
You can import this file easily into all common literature databanks and citation aid programs


List of essential papers. We consider these as the minimum necessary citations

  1. Neese,F.
     Software update: the ORCA program system, version 5.0
     WIRES Comput. Molec. Sci., 2022 12(1)e1606
     doi.org/10.1002/wcms.1606
  2. Grimme,S.; Hansen,A.; Ehlert,S.; Mewes,J.
     r2SCAN-3c: A 'Swiss army knife' composite electronic-structure method
     J. Chem. Phys., 2021 154 064103
     doi.org/10.1063/5.0040021

List of papers to cite with high priority. The work reported in these papers was absolutely
necessary for this run to complete.
Our perspective: the developers of density functionals and basis sets usually get cited in chemistry papers
Good! But without the algorithms to do something with them, the functionals or basis sets would not do anything.
Hence, in our opinion, the algorithm design and method developments papers are equally worthy of getting cited

  1. Neese,F.
     An improvement of the resolution of the identity approximation for the formation of the Coulomb matrix
     J. Comp. Chem., 2003 24(14)1740-1747
     doi.org/10.1002/jcc.10318
  2. Neese,F.
     The SHARK Integral Generation and Digestion System
     J. Comp. Chem., 2022  1-16
     doi.org/10.1002/jcc.26942
  3. Lehtola,S.; Steigemann,C.; Oliveira,M.; Marques,M.
     Recent developments in Libxc - A comprehensive library of functionals for density functional theory
     Software X, 2018 7 
     doi.org/10.1016/j.softx.2017.11.002
  4. Caldeweyher,E.; Bannwarth,C.; Grimme,S.
     Extension of the D3 dispersion coefficient model
     J. Chem. Phys., 2017 147 034112
     doi.org/10.1063/1.4993215
  5. Caldeweyher,E.; Ehlert,S.; Hansen,A.; Neugebauer,H.; Spicher,S.; Bannwarth,C.; Grimme,S.
     A generally applicable atomic-charge dependent London dispersion correction
     J. Chem. Phys., 2019 150 154122
     doi.org/10.1063/1.5090222
  6. Caldeweyher,E.; Mewes,J.; Ehlert,S.; Grimme,S.
     Extension and evaluation of the D4 London-dispersion model for periodic systems
     Phys. Chem. Chem. Phys., 2020 22(16)8499-8512
     doi.org/10.1039/D0CP00502A
  7. Wittmann,L.; Gordiy,I.; Friede,M.; Helmich-Paris,B.; Grimme,S.; Hansen,A.; Bursch,M.
     Extension of the D3 and D4 London Dispersion Corrections to the full Actinides Series
     Phys. Chem. Chem. Phys., 2024 26(32)21379-21394
     doi.org/https://doi.org/10.1039/D4CP01514B 

List of suggested additional citations. These are papers that are important in the 'surrounding' of 
of this run, or papers that preceded the highly important papers. If you like your results we are grateful for a citation.

  1. Neese,F.
     The ORCA program system
     WIRES Comput. Molec. Sci., 2012 2(1)73-78
     doi.org/10.1002/wcms.81
  2. Neese,F.
     Software update: the ORCA program system, version 4.0
     WIRES Comput. Molec. Sci., 2018 8(1)1-6
     doi.org/10.1002/wcms.1327
  3. Neese,F.; Wennmohs,F.; Becker,U.; Riplinger,C.
     The ORCA quantum chemistry program package
     J. Chem. Phys., 2020 152 Art. No. L224108
     doi.org/10.1063/5.0004608

List of optional additional citations

  1. Neese,F.
     Approximate second-order SCF convergence for spin unrestricted wavefunctions
     Chem. Phys. Lett., 2000 325(1-3)93-98
     doi.org/10.1016/s0009-2614(00)00662-x

Timings for individual modules:

Sum of individual times          ...       52.134 sec (=   0.869 min)
Startup calculation              ...       15.672 sec (=   0.261 min)  30.1 %
SCF iterations                   ...       25.622 sec (=   0.427 min)  49.1 %
Property calculations            ...        2.511 sec (=   0.042 min)   4.8 %
SCF Gradient evaluation          ...        8.185 sec (=   0.136 min)  15.7 %
Geometry relaxation              ...        0.143 sec (=   0.002 min)   0.3 %
                             ****ORCA TERMINATED NORMALLY****
TOTAL RUN TIME: 0 days 0 hours 0 minutes 56 seconds 788 msec
585.82user 126.93system 0:56.91elapsed 1252%CPU (0avgtext+0avgdata 392800maxresident)k
15567696inputs+933192outputs (109463major+6947186minor)pagefaults 0swaps
