
                                 *****************
                                 * O   R   C   A *
                                 *****************

                                            #,                                       
                                            ###                                      
                                            ####                                     
                                            #####                                    
                                            ######                                   
                                           ########,                                 
                                     ,,################,,,,,                         
                               ,,#################################,,                 
                          ,,##########################################,,             
                       ,#########################################, ''#####,          
                    ,#############################################,,   '####,        
                  ,##################################################,,,,####,       
                ,###########''''           ''''###############################       
              ,#####''   ,,,,##########,,,,          '''####'''          '####       
            ,##' ,,,,###########################,,,                        '##       
           ' ,,###''''                  '''############,,,                           
         ,,##''                                '''############,,,,        ,,,,,,###''
      ,#''                                            '''#######################'''  
     '                                                          ''''####''''         
             ,#######,   #######,   ,#######,      ##                                
            ,#'     '#,  ##    ##  ,#'     '#,    #''#        ,####,   ,####,        
            ##       ##  ##   ,#'  ##            #'  '#       #'       #'  '#        
            ##       ##  #######   ##           ,######,      #####,   #    #        
            '#,     ,#'  ##    ##  '#,     ,#' ,#      #,     #,   #   #,  ,#        
             '#######'   ##     ##  '#######'  #'      '#     '####' # '####'        



                #########################################################
                #                        -***-                          #
                #          Department of theory and spectroscopy        #
                #                                                       #
                #                      Frank Neese                      #
                #                                                       #
                #     Directorship, Architecture, Infrastructure        #
                #                    SHARK, DRIVERS                     #
                #        Core code/Algorithms in most modules           #
                #                                                       #
                #        Max Planck Institute fuer Kohlenforschung      #
                #                Kaiser Wilhelm Platz 1                 #
                #                 D-45470 Muelheim/Ruhr                 #
                #                      Germany                          #
                #                                                       #
                #                  All rights reserved                  #
                #                        -***-                          #
                #########################################################


                         Program Version 6.0.1  -  RELEASE   -


 With contributions from (in alphabetic order):
[Max-Planck-Institut fuer Kohlenforschung]                               
  Daniel Aravena         : Magnetic Suceptibility                        
  Michael Atanasov       : Ab Initio Ligand Field Theory (pilot matlab implementation)
  Alexander A. Auer      : GIAO ZORA, VPT2 properties, NMR spectrum      
  Ute Becker             : All parallelization in ORCA, NUMFREQ, NUMCALC 
  Giovanni Bistoni       : ED, misc. LED, open-shell LED, HFLD           
  Martin Brehm           : Molecular dynamics                            
  Dmytro Bykov           : pre 5.0 version of the SCF Hessian            
  Marcos Casanova-Páez   : Triplet and SCS-CIS(D). UHF-(DLPNO)-IP/EA/STEOM-CCSD. UHF-CVS-IP/STEOM-CCSD   
  Vijay G. Chilkuri      : MRCI spin determinant printing, contributions to CSF-ICE 
  Pauline Colinet        : FMM embedding                                 
  Dipayan Datta          : RHF DLPNO-CCSD density                        
  Achintya Kumar Dutta   : EOM-CC, STEOM-CC                              
  Nicolas Foglia         : Exact transition moments, OPA infrastructure, MCD improvements    
  Dmitry Ganyushin       : Spin-Orbit,Spin-Spin,Magnetic field MRCI      
  Miquel Garcia-Rates    : C-PCM and meta-GGA Hessian, CCSD/C-PCM, Gaussian charge scheme 
  Tiago L. C. Gouveia    : GS-ROHF, GS-ROCIS                             
  Yang Guo               : DLPNO-NEVPT2, F12-NEVPT2, CIM, IAO-localization        
  Andreas Hansen         : Spin unrestricted coupled pair/coupled cluster methods 
  Ingolf Harden          : AUTO-CI MPn and infrastructure                
  Benjamin Helmich-Paris : MC-RPA, TRAH-(SCF,CASSCF), AVAS, COSX integrals, SCF dyn. polar. 
  Lee Huntington         : MR-EOM, pCC                                   
  Robert Izsak           : Overlap fitted RIJCOSX, COSX-SCS-MP3, EOM     
  Riya Kayal             : Wick's Theorem for AUTO-CI, AUTO-CI UHF-CCSDT 
  Emily Kempfer          : AUTO-CI, RHF CISDT and CCSDT                  
  Christian Kollmar      : KDIIS, OOCD, Brueckner-CCSD(T), CCSD density, CASPT2, CASPT2-K, improved NEVPT2 
  Axel Koslowski         : Symmetry handling                             
  Simone Kossmann        : meta-GGA functionals, TD-DFT gradient, OOMP2, (MP2 Hessian; deprecated post 5.0) 
  Lucas Lang             : DCDCAS                                        
  Marvin Lechner         : AUTO-CI (C++ implementation), FIC-MRCC        
  Spencer Leger          : CASSCF response                               
  Dagmar Lenk            : GEPOL surface, SMD, ORCA-2-JSON               
  Dimitrios Liakos       : Extrapolation schemes; Compound Job, initial MDCI parallelization 
  Dimitrios Manganas     : Further ROCIS development; embedding schemes. LFT, Crystal Embedding 
  Dimitrios Pantazis     : SARC Basis sets                               
  Anastasios Papadopoulos: AUTO-CI, single reference methods and gradients 
  Taras Petrenko         : pre 6.0 DFT Hessian and TD-DFT gradient, (ASA, deprecated), ECA, 1-Electron XAS/XES, NRVS 
  Peter Pinski           : DLPNO-MP2, DLPNO-MP2 Gradient                 
  Christoph Reimann      : Effective Core Potentials                     
  Marius Retegan         : Local ZFS, SOC                                
  Christoph Riplinger    : Optimizer, TS searches, QM/MM, DLPNO-CCSD(T), (RO)-DLPNO pert. Triples 
  Michael Roemelt        : Original ROCIS implementation                 
  Masaaki Saitow         : Open-shell DLPNO-CCSD energy and density      
  Barbara Sandhoefer     : DKH picture change effects                    
  Kantharuban Sivalingam : CASSCF convergence/infrastructure, NEVPT2 and variants, FIC-MRCI 
  Bernardo de Souza      : ESD, SOC TD-DFT                               
  Georgi L. Stoychev     : AutoAux, RI-MP2 NMR, DLPNO-MP2 response, X2C  
  Van Anh Tran           : RI-MP2 g-tensors                              
  Willem Van den Heuvel  : Paramagnetic NMR                              
  Zikuan Wang            : NOTCH, Electric field optimization            
  Frank Wennmohs         : Technical directorship and infrastructure     
  Hang Xu                : AUTO-CI-Response properties                   
                                                                         
[FACCTs GmbH]                                                            
  Markus Bursch, Miquel Garcia-Rates, Christoph Riplinger, Bernardo de Souza, Georgi L. Stoychev 
                                                                 
  APM, Basis sets (HGBS, AHGBS, def-TZVP (Ac-Lr), def2-XVPD (La-Lu)), CI-OPT, improved COSX, DLPNO-Multilevel,           
  DOCKER, DRACO, updates on ESD, GOAT, IRC, LR-CPCM, MBIS, meta-GGA TD-DFT gradient, ML-optimized integration grids, 
  MM, NACMEs, nearIR, NEB, NEB-TS, NL-DFT gradient (VV10), 2- and 3-layer-ONIOM, interface openCOSMO-RS, QMMM,   
  Crystal-QMMM, SF, symmetry and pop. for TD-DFT, r2SCAN hybrids, SOLVATOR                                   
                                                                         
[Other institutions]                                                     
  V. Asgeirsson          : NEB                                           
  Christoph Bannwarth    : sTDA-DFT, sTD-DFT, PBEh-3c, B97-3c, D3        
  Sebastian Ehlert       : rSCAN, r2SCAN, r2SCAN-3c, D4, dhf basis sets  
  Marvin Friede          : D4 for Fr, Ra, Ac-Lr                          
  Lars Goerigk           : TD-DFT with DH, B97 family of functionals     
  Stefan Grimme          : VdW corrections, initial TS optimization, DFT functionals, gCP, sTDA/sTD-DF 
  Waldemar Hujo          : DFT-NL                                        
  H. Jonsson             : NEB                                           
  Holger Kruse           : gCP                                           
  Marcel Mueller         : wB97X-3c, vDZP basis set                      
  Hagen Neugebauer       : wr2SCAN                                       
  Tobias Risthaus        : range-separated hybrid DFT                    
  Lukas Wittmann         : regularized MP2, r2SCAN double-hybrids, wr2SCAN        
                                                                         
We gratefully acknowledge several colleagues who have allowed us to      
interface, adapt or use parts of their codes:                            
  Ed Valeev, F. Pavosevic, A. Kumar             : LibInt (2-el integral package), F12 methods 
  Garnet Chan, S. Sharma, J. Yang, R. Olivares  : DMRG                   
  Ulf Ekstrom                                   : XCFun DFT Library      
  Mihaly Kallay                                 : mrcc  (arbitrary order and MRCC methods)
  Frank Weinhold                                : gennbo (NPA and NBO analysis)           
  Simon Mueller                                 : openCOSMO-RS                            
  Christopher J. Cramer and Donald G. Truhlar   : smd solvation model                     
  S Lehtola, MJT Oliveira, MAL Marques          : LibXC Library                           
  Liviu Ungur et al                             : ANISO software                          


 Your calculation uses the libint2 library for the computation of 2-el integrals
 For citations please refer to: http://libint.valeyev.net

 Your ORCA version has been built with support for libXC version: 6.2.2
 For citations please refer to: https://libxc.gitlab.io

 This ORCA versions uses:
   CBLAS   interface :  Fast vector & matrix operations
   LAPACKE interface :  Fast linear algebra routines
   SCALAPACK package :  Parallel linear algebra routines
   Shared memory     :  Shared parallel matrices
   BLAS/LAPACK       :  OpenBLAS 0.3.27  USE64BITINT DYNAMIC_ARCH NO_AFFINITY SkylakeX SINGLE_THREADED
        Core in use  :  SkylakeX
   Copyright (c) 2011-2014, The OpenBLAS Project


NOTE: MaxCore=1400 MB was set to SCF,MP2,MDCI,CIPSI,MRCI and CIS
      => If you want to overwrite this, your respective input block should be placed after the MaxCore statement
Your calculation utilizes the geometrical counterpoise correction gCP
Please cite in your paper:
H.Kruse, S. Grimme J.Chem.Phys., 136, (2012), 154101 
   

Your calculation utilizes the atom-pairwise dispersion correction
based on EEQ partial charges (D4)


================================================================================

cite the ECPs for Ru [Def2-ECP] as follows:
Ce-Yb(ecp-28): M. Dolg, H. Stoll, H.Preuss, J. Chem. Phys., 1989, 90, 1730-1734.
Y-Cd(ecp-28), Hf-Hg(ecp-46): D. Andrae,U. Haeussermann, M. Dolg, H. Stoll, H. Preuss, Theor. Chim. Acta, 1990, 77, 123-141.
In-Sb(ecp-28), Tl-Bi(ecp-46): B. Metz, H. Stoll, M. Dolg, J. Chem. Phys., 2000, 113, 2563-2569.
Te-Xe(ecp-28), Po-Rn(ecp-46): K. A. Peterson, D. Figgen, E. Goll, H. Stoll, M. Dolg, J. Chem. Phys., 2003, 119, 11113-11123.
Rb(ecp-28), Cs(ecp-46): T. Leininger, A. Nicklass, W. Kuechle, H. Stoll, M. Dolg, A. Bergner, Chem. Phys. Lett., 1996, 255, 274-280.
Sr(ecp-28), Ba(ecp-46): M. Kaupp, P. V. Schleyer, H. Stoll and H. Preuss, J. Chem. Phys., 1991, 94, 1360-1366.
La(ecp-46): M. Dolg, H. Stoll, A. Savin, H. Preuss, Theor. Chim. Acta, 1989, 75, 173-194.
Lu(ecp-28): X. Cao, M. Dolg, J. Chem. Phys., 2001, 115, 7348-7355.
Fr-Lr(ecp-60) K. Eichkorn, F. Weigend, O. Treutler, R. Ahlrichs, Theor. Chem. Acc. 1997, 97, 119.

ECP parameters for Ru [Def2-ECP] have been obtained from:
TURBOMOLE (7.0.2)

----- Orbital basis set information -----
Your calculation utilizes the basis: def2-mTZVPP
   Stefan Grimme, Andreas Hansen, Sebastian Ehlert, and Jan-Michael Mewes 
   J. Chem. Phys. 154, 064103 (2021). DOI: 10.1063/5.0040021

----- AuxJ basis set information -----
Your calculation utilizes the basis: def2-mTZVPP/J
   Stefan Grimme, Andreas Hansen, Sebastian Ehlert, and Jan-Michael Mewes 
   J. Chem. Phys. 154, 000000 (2021). DOI: 10.1063/5.0040021

================================================================================
                                        WARNINGS
                       Please study these warnings very carefully!
================================================================================



WARNING: SCAN, rSCAN, or r2SCAN functional requested.
  ===> : libXC variant has now been activated.



================================================================================
                                       INPUT FILE
================================================================================
NAME = cli47.inp
|  1> %maxcore 1400
|  2> %pal nprocs 20 end
|  3> ! RKS r2scan-3c Opt MOREAD
|  4> %geom
|  5>   maxiter 10
|  6> end
|  7> %scf
|  8>   maxiter 500
|  9> end
| 10> %moinp "restart.gbw"
| 11> * xyz 0 1
| 12>     Ru -1.05323900 0.03930200 -0.01350200
| 13>      O 0.97265200 -0.81139500 -0.60905700
| 14>      C 0.05362800 1.45810600 0.41576400
| 15>      H -0.29316500 2.39831000 0.85108100
| 16>      C 1.34501400 -2.18667500 -0.99886300
| 17>      H 2.05150300 -2.08321300 -1.83206100
| 18>      C 1.97182900 -2.89942200 0.18506500
| 19>      H 2.83313000 -2.35676000 0.58314900
| 20>      H 2.30887500 -3.89167600 -0.13184700
| 21>      H 1.23312300 -3.01141100 0.98300700
| 22>      C 0.08231800 -2.85663500 -1.49566100
| 23>      H -0.65080300 -2.94868500 -0.68700800
| 24>      H 0.33466600 -3.86523000 -1.83716300
| 25>      H -0.35948400 -2.30233000 -2.32664800
| 26>      C 1.93874800 0.13277600 -0.41684100
| 27>      C 3.28301300 -0.01680000 -0.73188400
| 28>      H 3.66894600 -0.93595300 -1.15431800
| 29>      C 4.15013000 1.04764000 -0.49401600
| 30>      H 5.20070600 0.93103500 -0.74257900
| 31>      C 3.69601700 2.24729100 0.05302000
| 32>      H 4.38961400 3.06222900 0.23145800
| 33>      C 2.35505200 2.39143300 0.36311100
| 34>      H 1.97902900 3.31936700 0.78475600
| 35>      C 1.45034000 1.33983500 0.13336200
| 36>     Cl -1.49591300 0.33922600 -2.26907600
| 37>     Cl -1.03154500 -1.36964400 1.83538900
| 38>      C -2.52951200 0.92767800 0.53156700
| 39>      O -3.44277200 1.52930400 0.89339200
| 40> *
| 41> 
| 42>                          ****END OF INPUT****
================================================================================

                       *****************************
                       * Geometry Optimization Run *
                       *****************************

Geometry optimization settings:
Update method            Update   .... BFGS
Choice of coordinates    CoordSys .... (2022) Redundant Internals
Initial Hessian          InHess   .... Almloef's Model
Max. no of cycles        MaxIter  .... 10

Convergence Tolerances:
Energy Change            TolE     ....  5.0000e-06 Eh
Max. Gradient            TolMAXG  ....  3.0000e-04 Eh/bohr
RMS Gradient             TolRMSG  ....  1.0000e-04 Eh/bohr
Max. Displacement        TolMAXD  ....  4.0000e-03 bohr
RMS Displacement         TolRMSD  ....  2.0000e-03 bohr
Strict Convergence                .... False

------------------------------------------------------------------------------
                        ORCA OPTIMIZATION COORDINATE SETUP
------------------------------------------------------------------------------

The optimization will be done in redundant internal coordinates (2022)
Making redundant internal coordinates   ...  (2022 redundants) done
Evaluating the initial hessian          ...  (Almloef) done
Evaluating the coordinates              ...  done
Calculating the B-matrix                .... done
Calculating the G-matrix                .... done
Diagonalizing the G-matrix              .... done
Small eigenvalue found = 1.397e-02
Small eigenvalue found = 2.968e-02
The first mode is                       ....   68
The number of degrees of freedom        ....   78

    -----------------------------------------------------------------
                    Redundant Internal Coordinates


    -----------------------------------------------------------------
         Definition                    Initial Value    Approx d2E/dq
    -----------------------------------------------------------------
      1. B(O   1,Ru  0)                  2.2765         0.218068   
      2. B(C   2,Ru  0)                  1.8500         1.166792   
      3. B(H   3,C   2)                  1.0926         0.356692   
      4. B(C   4,O   1)                  1.4772         0.406275   
      5. B(H   5,C   4)                  1.0973         0.350582   
      6. B(C   6,C   4)                  1.5174         0.391231   
      7. B(H   7,C   6)                  1.0931         0.356067   
      8. B(H   8,C   6)                  1.0948         0.353797   
      9. B(H   9,C   6)                  1.0931         0.355979   
     10. B(C  10,C   4)                  1.5133         0.397221   
     11. B(H  11,C  10)                  1.0954         0.353052   
     12. B(H  12,C  10)                  1.0943         0.354412   
     13. B(H  13,C  10)                  1.0922         0.357152   
     14. B(C  14,O   1)                  1.3645         0.614646   
     15. B(C  15,C  14)                  1.3888         0.627633   
     16. B(H  16,C  15)                  1.0827         0.369889   
     17. B(C  17,C  15)                  1.3934         0.617088   
     18. B(H  18,C  17)                  1.0859         0.365620   
     19. B(C  19,C  17)                  1.3945         0.614553   
     20. B(H  20,C  19)                  1.0849         0.366890   
     21. B(C  21,C  19)                  1.3839         0.639005   
     22. B(H  22,C  21)                  1.0864         0.364910   
     23. B(C  23,C  21)                  1.4061         0.588891   
     24. B(C  23,C  14)                  1.4136         0.572916   
     25. B(C  23,C   2)                  1.4299         0.539660   
     26. B(Cl 24,Ru  0)                  2.3181         0.468981   
     27. B(Cl 25,Ru  0)                  2.3246         0.457810   
     28. B(C  26,Ru  0)                  1.8071         1.365746   
     29. B(O  27,C  26)                  1.1519         1.341900   
     30. A(C   2,Ru  0,Cl 25)          105.9438         0.605378   
     31. A(O   1,Ru  0,Cl 25)           88.4687         0.440207   
     32. A(O   1,Ru  0,C  26)          171.7231         0.520905   
     33. A(O   1,Ru  0,C   2)           79.3301         0.505785   
     34. A(Cl 24,Ru  0,C  26)           94.2369         0.627039   
     35. A(C   2,Ru  0,C  26)           92.3937         0.724027   
     36. A(Cl 24,Ru  0,Cl 25)          148.6598         0.526511   
     37. A(C   2,Ru  0,Cl 24)          103.9343         0.608203   
     38. A(O   1,Ru  0,Cl 24)           87.9219         0.442129   
     39. A(Cl 25,Ru  0,C  26)           93.7660         0.624111   
     40. A(Ru  0,O   1,C  14)          109.5517         0.398574   
     41. A(Ru  0,O   1,C   4)          129.8866         0.370882   
     42. A(C   4,O   1,C  14)          120.1948         0.396839   
     43. A(H   3,C   2,C  23)          117.3814         0.344198   
     44. A(Ru  0,C   2,C  23)          118.3706         0.534623   
     45. A(Ru  0,C   2,H   3)          124.2294         0.439935   
     46. A(C   6,C   4,C  10)          113.1328         0.370112   
     47. A(H   5,C   4,C  10)          109.2502         0.326168   
     48. A(O   1,C   4,C   6)          109.6059         0.369225   
     49. A(O   1,C   4,C  10)          106.7669         0.370190   
     50. A(O   1,C   4,H   5)          105.9556         0.325419   
     51. A(H   5,C   4,C   6)          111.7629         0.325354   
     52. A(C   4,C   6,H   7)          112.1140         0.326186   
     53. A(H   8,C   6,H   9)          109.0559         0.289511   
     54. A(H   7,C   6,H   9)          108.5119         0.289802   
     55. A(C   4,C   6,H   9)          109.7857         0.326173   
     56. A(C   4,C   6,H   8)          109.0886         0.325843   
     57. A(H   7,C   6,H   8)          108.2276         0.289523   
     58. A(H  12,C  10,H  13)          108.8799         0.289740   
     59. A(H  11,C  10,H  13)          109.4867         0.289565   
     60. A(C   4,C  10,H  13)          111.2599         0.327167   
     61. A(H  11,C  10,H  12)          107.8942         0.289216   
     62. A(C   4,C  10,H  12)          108.5462         0.326752   
     63. A(C   4,C  10,H  11)          110.6893         0.326545   
     64. A(O   1,C  14,C  15)          125.3710         0.431503   
     65. A(C  15,C  14,C  23)          120.9773         0.428892   
     66. A(O   1,C  14,C  23)          113.6450         0.424504   
     67. A(H  16,C  15,C  17)          119.5586         0.354233   
     68. A(C  14,C  15,C  17)          118.7747         0.434655   
     69. A(C  14,C  15,H  16)          121.6667         0.355252   
     70. A(H  18,C  17,C  19)          119.8177         0.353291   
     71. A(C  15,C  17,C  19)          121.4329         0.433011   
     72. A(C  15,C  17,H  18)          118.7494         0.353537   
     73. A(C  17,C  19,H  20)          120.1674         0.353498   
     74. A(H  20,C  19,C  21)          120.2910         0.355844   
     75. A(C  17,C  19,C  21)          119.5414         0.435739   
     76. A(H  22,C  21,C  23)          118.6535         0.350636   
     77. A(C  19,C  21,C  23)          120.5941         0.432408   
     78. A(C  19,C  21,H  22)          120.7519         0.355518   
     79. A(C  14,C  23,C  21)          118.6787         0.424026   
     80. A(C   2,C  23,C  21)          122.3006         0.419522   
     81. A(C   2,C  23,C  14)          119.0121         0.417471   
     82. L(Ru  0,C  26,O  27,Cl 25, 2) 176.9734         0.651852   
     83. L(Ru  0,C  26,O  27,Cl 25, 1) 180.4489         0.651852   
     84. D(C  14,O   1,Ru  0,C   2)     -2.6547         0.001740   
     85. D(C   4,O   1,Ru  0,C  26)    169.5423         0.001740   
     86. D(C   4,O   1,Ru  0,C   2)    170.2581         0.001740   
     87. D(C  14,O   1,Ru  0,Cl 25)   -109.1934         0.001740   
     88. D(C  14,O   1,Ru  0,Cl 24)    101.9438         0.001740   
     89. D(C   4,O   1,Ru  0,Cl 25)     63.7193         0.001740   
     90. D(C   4,O   1,Ru  0,Cl 24)    -85.1434         0.001740   
     91. D(C  23,C   2,Ru  0,Cl 25)     87.7853         0.007577   
     92. D(C  23,C   2,Ru  0,O   1)      2.4949         0.007577   
     93. D(H   3,C   2,Ru  0,C  26)      0.7755         0.007577   
     94. D(C  23,C   2,Ru  0,Cl 24)    -82.6425         0.007577   
     95. D(H   3,C   2,Ru  0,O   1)   -179.1214         0.007577   
     96. D(H   3,C   2,Ru  0,Cl 25)    -93.8310         0.007577   
     97. D(H   3,C   2,Ru  0,Cl 24)     95.7411         0.007577   
     98. D(H   5,C   4,O   1,Ru  0)    139.3922         0.014085   
     99. D(C  10,C   4,O   1,Ru  0)     23.0155         0.014085   
    100. D(C   6,C   4,O   1,C  14)     72.4050         0.014085   
    101. D(C   6,C   4,O   1,Ru  0)    -99.8643         0.014085   
    102. D(H   5,C   4,O   1,C  14)    -48.3386         0.014085   
    103. D(H   8,C   6,C   4,C  10)     64.9559         0.012165   
    104. D(H   8,C   6,C   4,H   5)    -58.8642         0.012165   
    105. D(H   8,C   6,C   4,O   1)   -176.0198         0.012165   
    106. D(H   7,C   6,C   4,C  10)   -175.1834         0.012165   
    107. D(H   7,C   6,C   4,H   5)     60.9965         0.012165   
    108. D(H   7,C   6,C   4,O   1)    -56.1591         0.012165   
    109. D(H  12,C  10,C   4,H   5)     63.2124         0.012525   
    110. D(H  11,C  10,C   4,C   6)     56.2628         0.012525   
    111. D(H  12,C  10,C   4,O   1)    177.3743         0.012525   
    112. D(H  11,C  10,C   4,H   5)   -178.5498         0.012525   
    113. D(H  11,C  10,C   4,O   1)    -64.3879         0.012525   
    114. D(H  12,C  10,C   4,C   6)    -61.9751         0.012525   
    115. D(C  23,C  14,O   1,C   4)   -171.5147         0.030550   
    116. D(C  23,C  14,O   1,Ru  0)      2.1969         0.030550   
    117. D(C  15,C  14,O   1,C   4)      9.4211         0.030550   
    118. D(C  15,C  14,O   1,Ru  0)   -176.8673         0.030550   
    119. D(C  17,C  15,C  14,C  23)      0.0969         0.027300   
    120. D(C  17,C  15,C  14,O   1)    179.0971         0.027300   
    121. D(H  16,C  15,C  14,C  23)   -179.9560         0.027300   
    122. D(H  16,C  15,C  14,O   1)     -0.9558         0.027300   
    123. D(C  19,C  17,C  15,H  16)   -179.7707         0.026335   
    124. D(C  19,C  17,C  15,C  14)      0.1776         0.026335   
    125. D(H  18,C  17,C  15,H  16)      0.1880         0.026335   
    126. D(H  18,C  17,C  15,C  14)   -179.8638         0.026335   
    127. D(C  21,C  19,C  17,H  18)    179.7646         0.026107   
    128. D(C  21,C  19,C  17,C  15)     -0.2771         0.026107   
    129. D(H  20,C  19,C  17,H  18)     -0.0772         0.026107   
    130. D(H  20,C  19,C  17,C  15)    179.8810         0.026107   
    131. D(C  23,C  21,C  19,H  20)    179.9418         0.028364   
    132. D(C  23,C  21,C  19,C  17)      0.1001         0.028364   
    133. D(H  22,C  21,C  19,H  20)      0.1910         0.028364   
    134. D(H  22,C  21,C  19,C  17)   -179.6506         0.028364   
    135. D(C  14,C  23,C  21,C  19)      0.1649         0.023861   
    136. D(C   2,C  23,C  21,H  22)      0.9945         0.023861   
    137. D(C   2,C  23,C  21,C  19)   -178.7614         0.023861   
    138. D(C  21,C  23,C  14,C  15)     -0.2655         0.022526   
    139. D(C  21,C  23,C  14,O   1)   -179.3755         0.022526   
    140. D(C   2,C  23,C  14,C  15)    178.6967         0.022526   
    141. D(C   2,C  23,C  14,O   1)     -0.4133         0.022526   
    142. D(C  21,C  23,C   2,H   3)     -1.7545         0.019899   
    143. D(C  21,C  23,C   2,Ru  0)    176.7406         0.019899   
    144. D(C  14,C  23,C   2,H   3)    179.3227         0.019899   
    145. D(C  14,C  23,C  21,H  22)    179.9208         0.023861   
    146. D(C  14,C  23,C   2,Ru  0)     -2.1822         0.019899   
    -----------------------------------------------------------------

Number of atoms                         .... 28
Number of degrees of freedom            .... 146


         *************************************************************
         *                GEOMETRY OPTIMIZATION CYCLE   1            *
         *************************************************************
---------------------------------
CARTESIAN COORDINATES (ANGSTROEM)
---------------------------------
  Ru    -1.053239    0.039302   -0.013502
  O      0.972652   -0.811395   -0.609057
  C      0.053628    1.458106    0.415764
  H     -0.293165    2.398310    0.851081
  C      1.345014   -2.186675   -0.998863
  H      2.051503   -2.083213   -1.832061
  C      1.971829   -2.899422    0.185065
  H      2.833130   -2.356760    0.583149
  H      2.308875   -3.891676   -0.131847
  H      1.233123   -3.011411    0.983007
  C      0.082318   -2.856635   -1.495661
  H     -0.650803   -2.948685   -0.687008
  H      0.334666   -3.865230   -1.837163
  H     -0.359484   -2.302330   -2.326648
  C      1.938748    0.132776   -0.416841
  C      3.283013   -0.016800   -0.731884
  H      3.668946   -0.935953   -1.154318
  C      4.150130    1.047640   -0.494016
  H      5.200706    0.931035   -0.742579
  C      3.696017    2.247291    0.053020
  H      4.389614    3.062229    0.231458
  C      2.355052    2.391433    0.363111
  H      1.979029    3.319367    0.784756
  C      1.450340    1.339835    0.133362
  Cl    -1.495913    0.339226   -2.269076
  Cl    -1.031545   -1.369644    1.835389
  C     -2.529512    0.927678    0.531567
  O     -3.442772    1.529304    0.893392

----------------------------
CARTESIAN COORDINATES (A.U.)
----------------------------
  NO LB      ZA    FRAG     MASS         X           Y           Z
   0 Ru   16.0000*   0   101.070   -1.990333    0.074270   -0.025515
   1 O     8.0000    0    15.999    1.838046   -1.533314   -1.150951
   2 C     6.0000    0    12.011    0.101342    2.755421    0.785680
   3 H     1.0000    0     1.008   -0.554002    4.532149    1.608310
   4 C     6.0000    0    12.011    2.541708   -4.132217   -1.887578
   5 H     1.0000    0     1.008    3.876779   -3.936702   -3.462094
   6 C     6.0000    0    12.011    3.726217   -5.479114    0.349722
   7 H     1.0000    0     1.008    5.353840   -4.453631    1.101992
   8 H     1.0000    0     1.008    4.363141   -7.354202   -0.249155
   9 H     1.0000    0     1.008    2.330265   -5.690742    1.857614
  10 C     6.0000    0    12.011    0.155558   -5.398258   -2.826390
  11 H     1.0000    0     1.008   -1.229839   -5.572207   -1.298257
  12 H     1.0000    0     1.008    0.632427   -7.304226   -3.471735
  13 H     1.0000    0     1.008   -0.679326   -4.350773   -4.396728
  14 C     6.0000    0    12.011    3.663703    0.250910   -0.787715
  15 C     6.0000    0    12.011    6.203995   -0.031747   -1.383060
  16 H     1.0000    0     1.008    6.933303   -1.768695   -2.181345
  17 C     6.0000    0    12.011    7.842609    1.979753   -0.933555
  18 H     1.0000    0     1.008    9.827910    1.759401   -1.403271
  19 C     6.0000    0    12.011    6.984460    4.246765    0.100193
  20 H     1.0000    0     1.008    8.295168    5.786774    0.437392
  21 C     6.0000    0    12.011    4.450403    4.519153    0.686180
  22 H     1.0000    0     1.008    3.739823    6.272695    1.482974
  23 C     6.0000    0    12.011    2.740745    2.531921    0.252018
  24 Cl   17.0000    0    35.453   -2.826866    0.641044   -4.287932
  25 Cl   17.0000    0    35.453   -1.949338   -2.588252    3.468383
  26 C     6.0000    0    12.011   -4.780085    1.753057    1.004516
  27 O     8.0000    0    15.999   -6.505896    2.889966    1.688266
* core charge reduced due to ECP

--------------------------------
INTERNAL COORDINATES (ANGSTROEM)
--------------------------------
 Ru     0   0   0     0.000000000000     0.00000000     0.00000000
 O      1   0   0     2.276533656179     0.00000000     0.00000000
 C      1   2   0     1.849980714727    79.33011078     0.00000000
 H      3   1   2     1.092588594556   124.22938409   180.87861130
 C      2   1   3     1.477158507094   129.88656050   170.25808315
 H      5   2   1     1.097292121438   105.95560074   139.39216867
 C      5   2   1     1.517429022860   109.60590139   260.13574653
 H      7   5   2     1.093065565234   112.11395621   303.84089761
 H      7   5   2     1.094806477135   109.08855351   183.98021031
 H      7   5   2     1.093132894904   109.78574314    64.53086280
 C      5   2   1     1.513293045917   106.76689253    23.01552178
 H     11   5   2     1.095380882410   110.68929483   295.61214755
 H     11   5   2     1.094334045497   108.54616599   177.37429960
 H     11   5   2     1.092237352592   111.25994127    57.58791814
 C      2   1   3     1.364458628582   109.55173913   357.34532492
 C     15   2   1     1.388766885352   125.37102911   183.13267556
 H     16  15   2     1.082698943499   121.66670747   359.04417737
 C     16  15   2     1.393379198464   118.77467337   179.09706837
 H     18  16  15     1.085859209460   118.74937516   180.13623516
 C     18  16  15     1.394499739644   121.43293499     0.17755660
 H     20  18  16     1.084915140505   120.16740110   179.88101642
 C     20  18  16     1.383878779254   119.54137047   359.72287229
 H     22  20  18     1.086388195310   120.75191217   180.34936660
 C     22  20  18     1.406110507588   120.59410868     0.10012634
 Cl     1   2   3     2.318087303258    87.92185561   104.59847658
 Cl     1   2   3     2.324649950086    88.46872886   253.46123931
 C      1   2   3     1.807123156474   171.72314064   359.28426108
 O     27   1   3     1.151917966741   177.65257014   355.84465491

---------------------------
INTERNAL COORDINATES (A.U.)
---------------------------
 Ru     0   0   0     0.000000000000     0.00000000     0.00000000
 O      1   0   0     4.302025144832     0.00000000     0.00000000
 C      1   2   0     3.495956903870    79.33011078     0.00000000
 H      3   1   2     2.064693220757   124.22938409   180.87861130
 C      2   1   3     2.791425034800   129.88656050   170.25808315
 H      5   2   1     2.073581598426   105.95560074   139.39216867
 C      5   2   1     2.867525280869   109.60590139   260.13574653
 H      7   5   2     2.065594564713   112.11395621   303.84089761
 H      7   5   2     2.068884411428   109.08855351   183.98021031
 H      7   5   2     2.065721799349   109.78574314    64.53086280
 C      5   2   1     2.859709417150   106.76689253    23.01552178
 H     11   5   2     2.069969880088   110.68929483   295.61214755
 H     11   5   2     2.067991645015   108.54616599   177.37429960
 H     11   5   2     2.064029469639   111.25994127    57.58791814
 C      2   1   3     2.578453129087   109.55173913   357.34532492
 C     15   2   1     2.624389077174   125.37102911   183.13267556
 H     16  15   2     2.046004488699   121.66670747   359.04417737
 C     16  15   2     2.633105085800   118.77467337   179.09706837
 H     18  16  15     2.051976525876   118.74937516   180.13623516
 C     18  16  15     2.635222601751   121.43293499     0.17755660
 H     20  18  16     2.050192494099   120.16740110   179.88101642
 C     20  18  16     2.615151895336   119.54137047   359.72287229
 H     22  20  18     2.052976164262   120.75191217   180.34936660
 C     22  20  18     2.657163773370   120.59410868     0.10012634
 Cl     1   2   3     4.380550157679    87.92185561   104.59847658
 Cl     1   2   3     4.392951762895    88.46872886   253.46123931
 C      1   2   3     3.414967856004   171.72314064   359.28426108
 O     27   1   3     2.176809485884   177.65257014   355.84465491

---------------------
BASIS SET INFORMATION
---------------------
There are 5 groups of distinct atoms

 Group   1 Type Ru  : 7s7p5d contracted to 6s4p3d pattern {211111/4111/311}
 Group   2 Type O   : 11s6p2d contracted to 5s3p2d pattern {62111/411/11}
 Group   3 Type C   : 11s6p1d contracted to 5s3p1d pattern {62111/411/1}
 Group   4 Type H   : 4s1p contracted to 2s1p pattern {31/1}
 Group   5 Type Cl  : 14s9p2d contracted to 5s4p2d pattern {73211/6111/11}

Atom   0Ru   basis set group =>   1
Atom   1O    basis set group =>   2
Atom   2C    basis set group =>   3
Atom   3H    basis set group =>   4
Atom   4C    basis set group =>   3
Atom   5H    basis set group =>   4
Atom   6C    basis set group =>   3
Atom   7H    basis set group =>   4
Atom   8H    basis set group =>   4
Atom   9H    basis set group =>   4
Atom  10C    basis set group =>   3
Atom  11H    basis set group =>   4
Atom  12H    basis set group =>   4
Atom  13H    basis set group =>   4
Atom  14C    basis set group =>   3
Atom  15C    basis set group =>   3
Atom  16H    basis set group =>   4
Atom  17C    basis set group =>   3
Atom  18H    basis set group =>   4
Atom  19C    basis set group =>   3
Atom  20H    basis set group =>   4
Atom  21C    basis set group =>   3
Atom  22H    basis set group =>   4
Atom  23C    basis set group =>   3
Atom  24Cl   basis set group =>   5
Atom  25Cl   basis set group =>   5
Atom  26C    basis set group =>   3
Atom  27O    basis set group =>   2
---------------------------------
AUXILIARY/J BASIS SET INFORMATION
---------------------------------
There are 5 groups of distinct atoms

 Group   1 Type Ru  : 11s5p5d3f3g contracted to 8s5p5d2f3g pattern {41111111/11111/11111/21/111}
 Group   2 Type O   : 8s3p3d contracted to 6s3p3d pattern {311111/111/111}
 Group   3 Type C   : 8s3p3d contracted to 6s3p3d pattern {311111/111/111}
 Group   4 Type H   : 5s2p1d contracted to 3s1p1d pattern {311/2/1}
 Group   5 Type Cl  : 14s5p5d2f contracted to 8s4p3d1f pattern {71111111/2111/311/2}

Atom   0Ru   basis set group =>   1
Atom   1O    basis set group =>   2
Atom   2C    basis set group =>   3
Atom   3H    basis set group =>   4
Atom   4C    basis set group =>   3
Atom   5H    basis set group =>   4
Atom   6C    basis set group =>   3
Atom   7H    basis set group =>   4
Atom   8H    basis set group =>   4
Atom   9H    basis set group =>   4
Atom  10C    basis set group =>   3
Atom  11H    basis set group =>   4
Atom  12H    basis set group =>   4
Atom  13H    basis set group =>   4
Atom  14C    basis set group =>   3
Atom  15C    basis set group =>   3
Atom  16H    basis set group =>   4
Atom  17C    basis set group =>   3
Atom  18H    basis set group =>   4
Atom  19C    basis set group =>   3
Atom  20H    basis set group =>   4
Atom  21C    basis set group =>   3
Atom  22H    basis set group =>   4
Atom  23C    basis set group =>   3
Atom  24Cl   basis set group =>   5
Atom  25Cl   basis set group =>   5
Atom  26C    basis set group =>   3
Atom  27O    basis set group =>   2
-------------------------
ECP PARAMETER INFORMATION
-------------------------

 Group 1, Type Ru ECP Def2-ECP (replacing 28 core electrons, lmax=3)

Atom   0Ru   ECP group =>   1



           ************************************************************
           *        Program running with 20 parallel MPI-processes    *
           *              working on a common directory               *
           ************************************************************
------------------------------------------------------------------------------
                             ORCA STARTUP CALCULATIONS
                           -- RI-GTO INTEGRALS CHOSEN --
------------------------------------------------------------------------------
------------------------------------------------------------------------------
                   ___                                                        
                  /   \      - P O W E R E D   B Y -                         
                 /     \                                                     
                 |  |  |   _    _      __       _____    __    __             
                 |  |  |  | |  | |    /  \     |  _  \  |  |  /  |          
                  \  \/   | |  | |   /    \    | | | |  |  | /  /          
                 / \  \   | |__| |  /  /\  \   | |_| |  |  |/  /          
                |  |  |   |  __  | /  /__\  \  |    /   |      \           
                |  |  |   | |  | | |   __   |  |    \   |  |\   \          
                \     /   | |  | | |  |  |  |  | |\  \  |  | \   \       
                 \___/    |_|  |_| |__|  |__|  |_| \__\ |__|  \__/        
                                                                              
                      - O R C A' S   B I G   F R I E N D -                    
                                      &                                       
                       - I N T E G R A L  F E E D E R -                       
                                                                              
 v1 FN, 2020, v2 2021, v3 2022-2024                                           
------------------------------------------------------------------------------


----------------------
SHARK INTEGRAL PACKAGE
----------------------

Number of atoms                             ...     28
Number of basis functions                   ...    404
Number of shells                            ...    190
Maximum angular momentum                    ...      2
Integral batch strategy                     ... SHARK/LIBINT Hybrid
RI-J (if used) integral strategy            ... SPLIT-RIJ (Revised 2003 algorithm where possible)
Printlevel                                  ...      1
Contraction scheme used                     ... SEGMENTED contraction
Prescreening option                         ... SCHWARTZ
   Thresh                                   ... 2.500e-11
   Tcut                                     ... 2.500e-12
   Tpresel                                  ... 2.500e-12 
Coulomb Range Separation                    ... NOT USED
Exchange Range Separation                   ... NOT USED
Multipole approximations                    ... NOT USED
Finite Nucleus Model                        ... NOT USED
CABS basis                                  ... NOT available
Auxiliary Coulomb fitting basis             ... AVAILABLE
   # of basis functions in Aux-J            ...    695
   # of shells in Aux-J                     ...    271
   Maximum angular momentum in Aux-J        ...      4
Auxiliary J/K fitting basis                 ... NOT available
Auxiliary Correlation fitting basis         ... NOT available
Auxiliary 'external' fitting basis          ... NOT available

Checking pre-screening integrals            ... done (  0.0 sec) Dimension = 190
Check shell pair data                       ... done (  0.0 sec)
Shell pair information
Shell pair cut-off parameter TPreSel        ...   2.5e-12
Total number of shell pairs                 ...     18145
Shell pairs after pre-screening             ...     14277
Total number of primitive shell pairs       ...     67207
Primitive shell pairs kept                  ...     33976
          la=0 lb=0:   4146 shell pairs
          la=1 lb=0:   5275 shell pairs
          la=1 lb=1:   1699 shell pairs
          la=2 lb=0:   1789 shell pairs
          la=2 lb=1:   1151 shell pairs
          la=2 lb=2:    217 shell pairs

Calculating one electron integrals          ... done (  0.0 sec)
Calculating ECP integrals                   ... done (  0.6 sec)
Calculating RI/J V-Matrix + Cholesky decomp.... done (  0.0 sec)
Calculating Nuclear repulsion               ... done (  0.0 sec) ENN=   1533.409112680912 Eh

Diagonalization of the overlap matrix:
Smallest eigenvalue                        ... 2.295e-05
Time for diagonalization                   ...    0.032 sec
Threshold for overlap eigenvalues          ... 1.000e-07
Number of eigenvalues below threshold      ... 0
Time for construction of square roots      ...    0.015 sec
Total time needed                          ...    0.067 sec

-------------------
DFT GRID GENERATION
-------------------

General Integration Accuracy     IntAcc      ... 4.388
Radial Grid Type                 RadialGrid  ... OptM3 with GC (2021)
Angular Grid (max. ang.)         AngularGrid ... 4 (Lebedev-302)
Angular grid pruning method      GridPruning ... 4 (adaptive)
Weight generation scheme         WeightScheme... mBecke (2022)
Basis function cutoff            BFCut       ... 1.0000e-11
Integration weight cutoff        WCut        ... 1.0000e-14
Partially contracted basis set               ... off
Rotationally invariant grid construction     ... off
Angular grids for H and He will be reduced by one unit
Diffuse basis detected: some atoms will have their outermost
                        angular grid increased by 1.

Total number of grid points                  ...   141357
Total number of batches                      ...     2222
Average number of points per batch           ...       63
Average number of grid points per atom       ...     5048
Initializing property integral containers    ... done (  0.1 sec)

SHARK setup successfully completed in   3.2 seconds

Maximum memory used throughout the entire STARTUP-calculation: 48.7 MB


           ************************************************************
           *        Program running with 20 parallel MPI-processes    *
           *              working on a common directory               *
           ************************************************************
-------------------------------------------------------------------------------
                                 ORCA GUESS
                   Start orbitals & Density for SCF / CASSCF
-------------------------------------------------------------------------------

------------
SCF SETTINGS
------------
Hamiltonian:
 Density Functional     Method          .... DFT(GTOs)
  Functional kind                       .... Exchange
  Functional name                       .... Re-regularized SCAN exchange by Furness et al
  Functional family                     .... MGGA
  Functional refs                              
    [ 0] J. W. Furness, A. D. Kaplan, J. Ning, J. P. Perdew, and J. Sun.,  J. Phys. Chem. Lett. 11, 8208-8215 (2020), doi: 10.1021/acs.jpclett.0c02405
    [ 1] J. W. Furness, A. D. Kaplan, J. Ning, J. P. Perdew, and J. Sun.,  J. Phys. Chem. Lett. 11, 9248-9248 (2020), doi: 10.1021/acs.jpclett.0c03077
  Functional external parameters        .... 6
    Parameter  0 _c1        =  6.670000e-01 : c1 parameter        
    Parameter  1 _c2        =  8.000000e-01 : c2 parameter        
    Parameter  2 _d         =  1.240000e+00 : d parameter         
    Parameter  3 _k1        =  6.500000e-02 : k1 parameter        
    Parameter  4 _eta       =  1.000000e-03 : eta parameter       
    Parameter  5 _dp2       =  3.610000e-01 : dp2 parameter       
  Functional kind                       .... Correlation
  Functional name                       .... Re-regularized SCAN correlation by Furness et al
  Functional family                     .... MGGA
  Functional refs                              
    [ 0] J. W. Furness, A. D. Kaplan, J. Ning, J. P. Perdew, and J. Sun.,  J. Phys. Chem. Lett. 11, 8208-8215 (2020), doi: 10.1021/acs.jpclett.0c02405
    [ 1] J. W. Furness, A. D. Kaplan, J. Ning, J. P. Perdew, and J. Sun.,  J. Phys. Chem. Lett. 11, 9248-9248 (2020), doi: 10.1021/acs.jpclett.0c03077
  Functional external parameters        .... 1
    Parameter  0 _eta       =  1.000000e-03 : Regularization parameter
 Gradients option       PostSCFGGA      .... off
 RI-approximation to the Coulomb term is turned on
   Number of AuxJ basis functions       .... 695


General Settings:
 Integral files         IntName         .... cli47
 Hartree-Fock type      HFTyp           .... RHF
 Total Charge           Charge          ....    0
 Multiplicity           Mult            ....    1
 Number of Electrons    NEL             ....  144
 Basis Dimension        Dim             ....  404
 Nuclear Repulsion      ENuc            ....   1533.4091126809 Eh

Convergence Acceleration:
 AO-DIIS                CNVDIIS         .... on
   Start iteration      DIISMaxIt       ....    12
   Startup error        DIISStart       ....  0.200000
   # of expansion vecs  DIISMaxEq       ....     5
   Bias factor          DIISBfac        ....   1.050
   Max. coefficient     DIISMaxC        ....  10.000
 MO-DIIS                CNVKDIIS        .... off
 Trust-Rad. Augm. Hess. CNVTRAH         .... auto
   Auto Start mean grad. ratio tolernc. ....  1.125000
   Auto Start start iteration           ....     1
   Auto Start num. interpolation iter.  ....    10
   Max. Number of Micro iterations      ....    24
   Max. Number of Macro iterations      .... Maxiter - #DIIS iter
   Number of Davidson start vectors     ....     2
   Converg. threshold    (grad. norm)   ....   1.000e-05
   Grad. Scal. Fac. for Micro threshold ....   0.100
   Minimum threshold for Micro iter.    ....   1.000e-02
   NR start threshold (gradient norm)   ....   1.000e-04
   Initial trust radius                 ....   0.400
   Minimum AH scaling param. (alpha)    ....   1.000
   Maximum AH scaling param. (alpha)    .... 1000.000
   Quad. conv. algorithm                .... NR
   White noise on init. David. guess    .... on
   Maximum white noise                  ....   0.010
   Pseudo random numbers                .... off
   Inactive MOs                         .... canonical
   Orbital update algorithm             .... Taylor
   Preconditioner                       .... Diag
   Full preconditioner red. dimension   ....   250
   COSX micro iterations for RIJONX calc.... off
 SOSCF                  CNVSOSCF        .... on
   Start iteration      SOSCFMaxIt      ....   150
   Startup grad/error   SOSCFStart      ....  0.003300
   Hessian update       SOSCFHessUp     .... L-BFGS
 Level Shifting         CNVShift        .... on
   Level shift para.    LevelShift      ....    0.2500
   Turn off err/grad.   ShiftErr        ....    0.0010
 Zerner damping         CNVZerner       .... off
 Static damping         CNVDamp         .... on
   Fraction old density DampFac         ....    0.7000
   Max. Damping (<1)    DampMax         ....    0.9800
   Min. Damping (>=0)   DampMin         ....    0.0000
   Turn off err/grad.   DampErr         ....    0.1000

SCF Procedure:
 Maximum # iterations   MaxIter         ....   500
 SCF integral mode      SCFMode         .... Direct
   Integral package                     .... SHARK and LIBINT hybrid scheme
 Reset frequency        DirectResetFreq ....    20
 Integral Threshold     Thresh          ....  2.500e-11 Eh
 Primitive CutOff       TCut            ....  2.500e-12 Eh

Convergence Tolerance:
 Convergence Check Mode ConvCheckMode   .... Total+1el-Energy
 Convergence forced     ConvForced      .... 0
 Energy Change          TolE            ....  1.000e-08 Eh
 1-El. energy change                    ....  1.000e-05 Eh
 Orbital Gradient       TolG            ....  1.000e-05
 Orbital Rotation angle TolX            ....  1.000e-05
 DIIS Error             TolErr          ....  5.000e-07

---------------------
INITIAL GUESS: MOREAD
---------------------
Guess MOs are being read from file: restart.gbw
Input geometry compatible with but different from current geometry
Input basis set matches current basis set (good)
Occupation numbers will be reassigned to an Aufbau configuration
MOs were renormalized
MOs were reorthogonalized (Cholesky)
                      ------------------
                      INITIAL GUESS DONE (   0.4 sec)
                      ------------------
             **** ENERGY FILE WAS UPDATED (cli47.en.tmp) ****
Finished Guess after   2.3 sec
Maximum memory used throughout the entire GUESS-calculation: 28.6 MB


           ************************************************************
           *        Program running with 20 parallel MPI-processes    *
           *              working on a common directory               *
           ************************************************************

-------------------------------------------------------------------------------------------
                                      ORCA LEAN-SCF
                              memory conserving SCF solver
-------------------------------------------------------------------------------------------

----------------------------------------D-I-I-S--------------------------------------------
Iteration    Energy (Eh)           Delta-E    RMSDP     MaxDP     DIISErr   Damp  Time(sec)
-------------------------------------------------------------------------------------------
               ***  Starting incremental Fock matrix formation  ***
                              *** Initializing SOSCF ***
---------------------------------------S-O-S-C-F--------------------------------------
Iteration    Energy (Eh)           Delta-E    RMSDP     MaxDP     MaxGrad    Time(sec)
--------------------------------------------------------------------------------------
    1    -1592.1775441347697324     0.00e+00  1.14e-06  6.33e-05  1.52e-06     2.3
               *** Restarting incremental Fock matrix formation ***
    2    -1592.1775441347165270     5.32e-11  3.42e-07  1.17e-05  2.28e-06     1.9
                  *** Gradient check signals convergence ***

               *****************************************************
               *                     SUCCESS                       *
               *           SCF CONVERGED AFTER   2 CYCLES          *
               *****************************************************

             **** ENERGY FILE WAS UPDATED (cli47.en.tmp) ****

----------------
TOTAL SCF ENERGY
----------------

Total Energy       :      -1592.17754413471653 Eh          -43325.35359 eV

Components:
Nuclear Repulsion  :       1533.40911268091236 Eh           41726.18327 eV
Electronic Energy  :      -3125.58665681562888 Eh          -85051.53687 eV
One Electron Energy:      -5270.40837484599524 Eh         -143415.10296 eV
Two Electron Energy:       2144.82171803036636 Eh           58363.56609 eV

Virial components:
Potential Energy   :      -3118.65166654509721 Eh          -84862.82619 eV
Kinetic Energy     :       1526.47412241038046 Eh           41537.47260 eV
Virial Ratio       :          2.04304260436501

DFT components:
N(Alpha)           :       72.000040141073 electrons
N(Beta)            :       72.000040141073 electrons
N(Total)           :      144.000080282147 electrons
E(X)               :     -142.698833473947 Eh       
E(C)               :       -5.014362423789 Eh       
E(XC)              :     -147.713195897736 Eh       

---------------
SCF CONVERGENCE
---------------

  Last Energy change         ...   -5.3205e-11  Tolerance :   1.0000e-08
  Last MAX-Density change    ...    1.1669e-05  Tolerance :   1.0000e-07
  Last RMS-Density change    ...    3.4221e-07  Tolerance :   5.0000e-09
  Last DIIS Error            ...    7.2390e-06  Tolerance :   5.0000e-07
  Last Orbital Gradient      ...    2.2794e-06  Tolerance :   1.0000e-05
  Last Orbital Rotation      ...    1.3872e-05  Tolerance :   1.0000e-05


----------------
ORBITAL ENERGIES
----------------

  NO   OCC          E(Eh)            E(eV) 
   0   2.0000    -101.175239     -2753.1182 
   1   2.0000    -101.174319     -2753.0932 
   2   2.0000     -19.042584      -518.1751 
   3   2.0000     -19.024607      -517.6859 
   4   2.0000     -10.151999      -276.2499 
   5   2.0000     -10.137250      -275.8486 
   6   2.0000     -10.128926      -275.6221 
   7   2.0000     -10.094713      -274.6911 
   8   2.0000     -10.077277      -274.2166 
   9   2.0000     -10.074589      -274.1435 
  10   2.0000     -10.073351      -274.1098 
  11   2.0000     -10.070906      -274.0433 
  12   2.0000     -10.062453      -273.8133 
  13   2.0000     -10.044287      -273.3189 
  14   2.0000     -10.042640      -273.2741 
  15   2.0000      -9.330159      -253.8865 
  16   2.0000      -9.329195      -253.8603 
  17   2.0000      -7.073644      -192.4836 
  18   2.0000      -7.072762      -192.4596 
  19   2.0000      -7.068417      -192.3414 
  20   2.0000      -7.067420      -192.3143 
  21   2.0000      -7.067123      -192.3062 
  22   2.0000      -7.066115      -192.2788 
  23   2.0000      -3.024095       -82.2898 
  24   2.0000      -1.877342       -51.0851 
  25   2.0000      -1.873307       -50.9753 
  26   2.0000      -1.872418       -50.9511 
  27   2.0000      -1.092518       -29.7289 
  28   2.0000      -1.076014       -29.2798 
  29   2.0000      -0.860942       -23.4274 
  30   2.0000      -0.795608       -21.6496 
  31   2.0000      -0.772447       -21.0194 
  32   2.0000      -0.739617       -20.1260 
  33   2.0000      -0.733259       -19.9530 
  34   2.0000      -0.725616       -19.7450 
  35   2.0000      -0.682707       -18.5774 
  36   2.0000      -0.665742       -18.1158 
  37   2.0000      -0.635893       -17.3035 
  38   2.0000      -0.583458       -15.8767 
  39   2.0000      -0.573284       -15.5998 
  40   2.0000      -0.545484       -14.8434 
  41   2.0000      -0.530590       -14.4381 
  42   2.0000      -0.493928       -13.4405 
  43   2.0000      -0.481520       -13.1028 
  44   2.0000      -0.463958       -12.6249 
  45   2.0000      -0.452425       -12.3111 
  46   2.0000      -0.443937       -12.0801 
  47   2.0000      -0.434918       -11.8347 
  48   2.0000      -0.428347       -11.6559 
  49   2.0000      -0.424515       -11.5516 
  50   2.0000      -0.411888       -11.2080 
  51   2.0000      -0.406241       -11.0544 
  52   2.0000      -0.390314       -10.6210 
  53   2.0000      -0.385116       -10.4795 
  54   2.0000      -0.381315       -10.3761 
  55   2.0000      -0.375307       -10.2126 
  56   2.0000      -0.357428        -9.7261 
  57   2.0000      -0.357048        -9.7158 
  58   2.0000      -0.349111        -9.4998 
  59   2.0000      -0.342365        -9.3162 
  60   2.0000      -0.340373        -9.2620 
  61   2.0000      -0.334573        -9.1042 
  62   2.0000      -0.331243        -9.0136 
  63   2.0000      -0.300580        -8.1792 
  64   2.0000      -0.298643        -8.1265 
  65   2.0000      -0.274616        -7.4727 
  66   2.0000      -0.274397        -7.4667 
  67   2.0000      -0.272402        -7.4124 
  68   2.0000      -0.248076        -6.7505 
  69   2.0000      -0.244459        -6.6521 
  70   2.0000      -0.218904        -5.9567 
  71   2.0000      -0.213256        -5.8030 
  72   0.0000      -0.128206        -3.4887 
  73   0.0000      -0.110252        -3.0001 
  74   0.0000      -0.069525        -1.8919 
  75   0.0000      -0.055763        -1.5174 
  76   0.0000      -0.030272        -0.8237 
  77   0.0000      -0.022632        -0.6158 
  78   0.0000      -0.013493        -0.3672 
  79   0.0000       0.034671         0.9434 
  80   0.0000       0.043263         1.1772 
  81   0.0000       0.053778         1.4634 
  82   0.0000       0.058728         1.5981 
*Only the first 10 virtual orbitals were printed.

                    ********************************
                    * MULLIKEN POPULATION ANALYSIS *
                    ********************************

-----------------------
MULLIKEN ATOMIC CHARGES
-----------------------
   0 Ru:    0.106905
   1 O :   -0.091730
   2 C :   -0.103341
   3 H :    0.149303
   4 C :   -0.072564
   5 H :    0.153559
   6 C :   -0.418884
   7 H :    0.155041
   8 H :    0.159726
   9 H :    0.192884
  10 C :   -0.463994
  11 H :    0.181329
  12 H :    0.152872
  13 H :    0.193397
  14 C :    0.264855
  15 C :   -0.254606
  16 H :    0.153975
  17 C :   -0.123173
  18 H :    0.153773
  19 C :   -0.154214
  20 H :    0.153607
  21 C :   -0.206035
  22 H :    0.151256
  23 C :    0.012558
  24 Cl:   -0.368161
  25 Cl:   -0.381265
  26 C :    0.593717
  27 O :   -0.290791
Sum of atomic charges:    0.0000000

--------------------------------
MULLIKEN REDUCED ORBITAL CHARGES
--------------------------------
  0 Rus       :     2.670784  s :     2.670784
      pz      :     2.185750  p :     6.566429
      px      :     2.217407
      py      :     2.163272
      dz2     :     1.178561  d :     6.655882
      dxz     :     1.500072
      dyz     :     1.305634
      dx2y2   :     1.518913
      dxy     :     1.152702

  1 O s       :     3.658201  s :     3.658201
      pz      :     1.761123  p :     4.349555
      px      :     1.442357
      py      :     1.146075
      dz2     :     0.008374  d :     0.083973
      dxz     :     0.017935
      dyz     :     0.015432
      dx2y2   :     0.024257
      dxy     :     0.017975

  2 C s       :     3.155487  s :     3.155487
      pz      :     0.866316  p :     2.909315
      px      :     1.028511
      py      :     1.014488
      dz2     :     0.003202  d :     0.038539
      dxz     :     0.007064
      dyz     :     0.004828
      dx2y2   :     0.015493
      dxy     :     0.007951

  3 H s       :     0.831469  s :     0.831469
      pz      :     0.004821  p :     0.019228
      px      :     0.004354
      py      :     0.010052

  4 C s       :     3.230164  s :     3.230164
      pz      :     0.987860  p :     2.778210
      px      :     1.040953
      py      :     0.749397
      dz2     :     0.010146  d :     0.064190
      dxz     :     0.014029
      dyz     :     0.013170
      dx2y2   :     0.015365
      dxy     :     0.011480

  5 H s       :     0.829081  s :     0.829081
      pz      :     0.008269  p :     0.017360
      px      :     0.006823
      py      :     0.002268

  6 C s       :     3.305256  s :     3.305256
      pz      :     0.986627  p :     3.086952
      px      :     1.079722
      py      :     1.020604
      dz2     :     0.004224  d :     0.026676
      dxz     :     0.008476
      dyz     :     0.005338
      dx2y2   :     0.003979
      dxy     :     0.004659

  7 H s       :     0.826599  s :     0.826599
      pz      :     0.004728  p :     0.018360
      px      :     0.008255
      py      :     0.005378

  8 H s       :     0.822265  s :     0.822265
      pz      :     0.003926  p :     0.018008
      px      :     0.004389
      py      :     0.009693

  9 H s       :     0.788877  s :     0.788877
      pz      :     0.007728  p :     0.018239
      px      :     0.007071
      py      :     0.003440

 10 C s       :     3.351909  s :     3.351909
      pz      :     1.085192  p :     3.085201
      px      :     0.949058
      py      :     1.050950
      dz2     :     0.003409  d :     0.026885
      dxz     :     0.008725
      dyz     :     0.004123
      dx2y2   :     0.005356
      dxy     :     0.005271

 11 H s       :     0.800409  s :     0.800409
      pz      :     0.007703  p :     0.018262
      px      :     0.006910
      py      :     0.003649

 12 H s       :     0.829062  s :     0.829062
      pz      :     0.004454  p :     0.018066
      px      :     0.003689
      py      :     0.009923

 13 H s       :     0.788307  s :     0.788307
      pz      :     0.007793  p :     0.018296
      px      :     0.004827
      py      :     0.005676

 14 C s       :     3.121301  s :     3.121301
      pz      :     0.891125  p :     2.540772
      px      :     0.774664
      py      :     0.874983
      dz2     :     0.006854  d :     0.073071
      dxz     :     0.013514
      dyz     :     0.010509
      dx2y2   :     0.019104
      dxy     :     0.023091

 15 C s       :     3.239858  s :     3.239858
      pz      :     1.055668  p :     2.977853
      px      :     0.936562
      py      :     0.985623
      dz2     :     0.003408  d :     0.036895
      dxz     :     0.006587
      dyz     :     0.004236
      dx2y2   :     0.012832
      dxy     :     0.009833

 16 H s       :     0.825940  s :     0.825940
      pz      :     0.005721  p :     0.020085
      px      :     0.004379
      py      :     0.009985

 17 C s       :     3.199910  s :     3.199910
      pz      :     0.948907  p :     2.884221
      px      :     1.020058
      py      :     0.915256
      dz2     :     0.004290  d :     0.039042
      dxz     :     0.004062
      dyz     :     0.007283
      dx2y2   :     0.012267
      dxy     :     0.011141

 18 H s       :     0.827040  s :     0.827040
      pz      :     0.004272  p :     0.019186
      px      :     0.011651
      py      :     0.003263

 19 C s       :     3.188111  s :     3.188111
      pz      :     0.989780  p :     2.928079
      px      :     0.960657
      py      :     0.977642
      dz2     :     0.004138  d :     0.038024
      dxz     :     0.005897
      dyz     :     0.004679
      dx2y2   :     0.011189
      dxy     :     0.012120

 20 H s       :     0.827034  s :     0.827034
      pz      :     0.004269  p :     0.019359
      px      :     0.006780
      py      :     0.008311

 21 C s       :     3.235819  s :     3.235819
      pz      :     0.977334  p :     2.931462
      px      :     0.944412
      py      :     1.009716
      dz2     :     0.003270  d :     0.038754
      dxz     :     0.007657
      dyz     :     0.004013
      dx2y2   :     0.011114
      dxy     :     0.012700

 22 H s       :     0.829418  s :     0.829418
      pz      :     0.005207  p :     0.019327
      px      :     0.004118
      py      :     0.010002

 23 C s       :     3.242017  s :     3.242017
      pz      :     1.006407  p :     2.696908
      px      :     0.777560
      py      :     0.912942
      dz2     :     0.004755  d :     0.048517
      dxz     :     0.007135
      dyz     :     0.007159
      dx2y2   :     0.014859
      dxy     :     0.014609

 24 Cls       :     5.964932  s :     5.964932
      pz      :     3.565051  p :    11.372724
      px      :     3.916716
      py      :     3.890956
      dz2     :     0.010855  d :     0.030505
      dxz     :     0.008946
      dyz     :     0.008472
      dx2y2   :     0.001053
      dxy     :     0.001180

 25 Cls       :     5.964848  s :     5.964848
      pz      :     3.729269  p :    11.386151
      px      :     3.925804
      py      :     3.731078
      dz2     :     0.009916  d :     0.030266
      dxz     :     0.005222
      dyz     :     0.008260
      dx2y2   :     0.002460
      dxy     :     0.004408

 26 C s       :     3.175188  s :     3.175188
      pz      :     0.711121  p :     2.147944
      px      :     0.728366
      py      :     0.708457
      dz2     :     0.010972  d :     0.083151
      dxz     :     0.019366
      dyz     :     0.009833
      dx2y2   :     0.025403
      dxy     :     0.017577

 27 O s       :     3.876710  s :     3.876710
      pz      :     1.501123  p :     4.377959
      px      :     1.412897
      py      :     1.463939
      dz2     :     0.004079  d :     0.036123
      dxz     :     0.008022
      dyz     :     0.003854
      dx2y2   :     0.008630
      dxy     :     0.011538



                     *******************************
                     * LOEWDIN POPULATION ANALYSIS *
                     *******************************

----------------------
LOEWDIN ATOMIC CHARGES
----------------------
   0 Ru:   -0.392202
   1 O :   -0.681789
   2 C :   -0.031215
   3 H :    0.183376
   4 C :    0.086144
   5 H :    0.182643
   6 C :   -0.378840
   7 H :    0.167044
   8 H :    0.165428
   9 H :    0.180313
  10 C :   -0.371564
  11 H :    0.179182
  12 H :    0.168421
  13 H :    0.181017
  14 C :    0.248886
  15 C :   -0.155724
  16 H :    0.181872
  17 C :   -0.125206
  18 H :    0.174749
  19 C :   -0.171958
  20 H :    0.174738
  21 C :   -0.109330
  22 H :    0.179322
  23 C :   -0.055983
  24 Cl:   -0.037122
  25 Cl:   -0.049717
  26 C :    0.345655
  27 O :   -0.238140

-------------------------------
LOEWDIN REDUCED ORBITAL CHARGES
-------------------------------
  0 Rus       :     2.287764  s :     2.287764
      pz      :     2.407480  p :     6.961580
      px      :     2.263893
      py      :     2.290207
      dz2     :     1.325006  d :     7.142858
      dxz     :     1.545720
      dyz     :     1.398212
      dx2y2   :     1.560252
      dxy     :     1.313668

  1 O s       :     3.428868  s :     3.428868
      pz      :     1.748828  p :     4.657955
      px      :     1.544360
      py      :     1.364767
      dz2     :     0.065871  d :     0.594966
      dxz     :     0.090365
      dyz     :     0.112761
      dx2y2   :     0.158950
      dxy     :     0.167019

  2 C s       :     2.965871  s :     2.965871
      pz      :     0.878875  p :     2.990776
      px      :     1.046028
      py      :     1.065874
      dz2     :     0.005250  d :     0.074568
      dxz     :     0.012716
      dyz     :     0.008825
      dx2y2   :     0.032117
      dxy     :     0.015660

  3 H s       :     0.771012  s :     0.771012
      pz      :     0.010972  p :     0.045612
      px      :     0.009969
      py      :     0.024672

  4 C s       :     2.837529  s :     2.837529
      pz      :     1.052909  p :     2.944497
      px      :     1.068585
      py      :     0.823003
      dz2     :     0.019031  d :     0.131830
      dxz     :     0.030341
      dyz     :     0.026915
      dx2y2   :     0.031018
      dxy     :     0.024526

  5 H s       :     0.775941  s :     0.775941
      pz      :     0.019698  p :     0.041416
      px      :     0.016145
      py      :     0.005573

  6 C s       :     2.966851  s :     2.966851
      pz      :     1.101460  p :     3.351224
      px      :     1.142456
      py      :     1.107309
      dz2     :     0.009412  d :     0.060765
      dxz     :     0.019391
      dyz     :     0.011739
      dx2y2   :     0.009341
      dxy     :     0.010882

  7 H s       :     0.789057  s :     0.789057
      pz      :     0.010744  p :     0.043899
      px      :     0.020273
      py      :     0.012882

  8 H s       :     0.791235  s :     0.791235
      pz      :     0.009184  p :     0.043337
      px      :     0.010020
      py      :     0.024133

  9 H s       :     0.774770  s :     0.774770
      pz      :     0.019378  p :     0.044918
      px      :     0.017895
      py      :     0.007644

 10 C s       :     2.962658  s :     2.962658
      pz      :     1.149891  p :     3.348463
      px      :     1.077799
      py      :     1.120773
      dz2     :     0.007251  d :     0.060443
      dxz     :     0.019835
      dyz     :     0.009418
      dx2y2   :     0.012763
      dxy     :     0.011177

 11 H s       :     0.776400  s :     0.776400
      pz      :     0.019545  p :     0.044418
      px      :     0.016906
      py      :     0.007967

 12 H s       :     0.788312  s :     0.788312
      pz      :     0.010103  p :     0.043267
      px      :     0.008592
      py      :     0.024572

 13 H s       :     0.773924  s :     0.773924
      pz      :     0.020169  p :     0.045059
      px      :     0.011193
      py      :     0.013696

 14 C s       :     2.765383  s :     2.765383
      pz      :     0.910631  p :     2.830370
      px      :     0.987820
      py      :     0.931919
      dz2     :     0.014462  d :     0.155361
      dxz     :     0.025543
      dyz     :     0.021041
      dx2y2   :     0.043446
      dxy     :     0.050870

 15 C s       :     2.889577  s :     2.889577
      pz      :     1.042509  p :     3.188218
      px      :     1.046039
      py      :     1.099670
      dz2     :     0.005767  d :     0.077929
      dxz     :     0.012623
      dyz     :     0.008032
      dx2y2   :     0.027856
      dxy     :     0.023650

 16 H s       :     0.771906  s :     0.771906
      pz      :     0.013049  p :     0.046222
      px      :     0.009756
      py      :     0.023416

 17 C s       :     2.908340  s :     2.908340
      pz      :     0.964545  p :     3.134740
      px      :     1.096209
      py      :     1.073986
      dz2     :     0.007550  d :     0.082126
      dxz     :     0.007671
      dyz     :     0.014163
      dx2y2   :     0.028148
      dxy     :     0.024595

 18 H s       :     0.781101  s :     0.781101
      pz      :     0.009314  p :     0.044150
      px      :     0.027749
      py      :     0.007087

 19 C s       :     2.903627  s :     2.903627
      pz      :     1.011252  p :     3.187127
      px      :     1.092064
      py      :     1.083811
      dz2     :     0.007406  d :     0.081204
      dxz     :     0.011630
      dyz     :     0.008893
      dx2y2   :     0.025201
      dxy     :     0.028074

 20 H s       :     0.780709  s :     0.780709
      pz      :     0.009306  p :     0.044553
      px      :     0.015723
      py      :     0.019524

 21 C s       :     2.901377  s :     2.901377
      pz      :     0.970493  p :     3.126384
      px      :     1.083821
      py      :     1.072069
      dz2     :     0.005664  d :     0.081569
      dxz     :     0.014589
      dyz     :     0.007690
      dx2y2   :     0.025452
      dxy     :     0.028174

 22 H s       :     0.776258  s :     0.776258
      pz      :     0.011672  p :     0.044419
      px      :     0.009268
      py      :     0.023479

 23 C s       :     2.841555  s :     2.841555
      pz      :     1.005811  p :     3.114967
      px      :     1.064273
      py      :     1.044884
      dz2     :     0.008942  d :     0.099461
      dxz     :     0.013419
      dyz     :     0.013189
      dx2y2   :     0.031985
      dxy     :     0.031925

 24 Cls       :     5.710529  s :     5.710529
      pz      :     3.536093  p :    11.269557
      px      :     3.877404
      py      :     3.856060
      dz2     :     0.020055  d :     0.057037
      dxz     :     0.018013
      dyz     :     0.015395
      dx2y2   :     0.001773
      dxy     :     0.001800

 25 Cls       :     5.712544  s :     5.712544
      pz      :     3.701347  p :    11.280900
      px      :     3.886109
      py      :     3.693443
      dz2     :     0.017181  d :     0.056273
      dxz     :     0.010619
      dyz     :     0.014609
      dx2y2   :     0.004928
      dxy     :     0.008936

 26 C s       :     2.965390  s :     2.965390
      pz      :     0.752813  p :     2.518639
      px      :     0.953370
      py      :     0.812456
      dz2     :     0.022263  d :     0.170316
      dxz     :     0.039100
      dyz     :     0.019260
      dx2y2   :     0.048827
      dxy     :     0.040866

 27 O s       :     3.545116  s :     3.545116
      pz      :     1.495352  p :     4.517010
      px      :     1.525384
      py      :     1.496275
      dz2     :     0.022594  d :     0.176013
      dxz     :     0.038286
      dyz     :     0.018590
      dx2y2   :     0.039673
      dxy     :     0.056871



                      *****************************
                      * MAYER POPULATION ANALYSIS *
                      *****************************

  NA   - Mulliken gross atomic population
  ZA   - Total nuclear charge
  QA   - Mulliken gross atomic charge
  VA   - Mayer's total valence
  BVA  - Mayer's bonded valence
  FA   - Mayer's free valence

  ATOM       NA         ZA         QA         VA         BVA        FA
  0 Ru    15.8931    16.0000     0.1069     5.5909     5.5909    -0.0000
  1 O      8.0917     8.0000    -0.0917     2.0310     2.0310     0.0000
  2 C      6.1033     6.0000    -0.1033     3.5337     3.5337    -0.0000
  3 H      0.8507     1.0000     0.1493     0.9587     0.9587    -0.0000
  4 C      6.0726     6.0000    -0.0726     3.6494     3.6494     0.0000
  5 H      0.8464     1.0000     0.1536     0.9495     0.9495     0.0000
  6 C      6.4189     6.0000    -0.4189     3.7091     3.7091    -0.0000
  7 H      0.8450     1.0000     0.1550     0.9664     0.9664     0.0000
  8 H      0.8403     1.0000     0.1597     0.9616     0.9616    -0.0000
  9 H      0.8071     1.0000     0.1929     0.9572     0.9572    -0.0000
 10 C      6.4640     6.0000    -0.4640     3.6746     3.6746     0.0000
 11 H      0.8187     1.0000     0.1813     0.9629     0.9629     0.0000
 12 H      0.8471     1.0000     0.1529     0.9629     0.9629    -0.0000
 13 H      0.8066     1.0000     0.1934     0.9559     0.9559     0.0000
 14 C      5.7351     6.0000     0.2649     3.9240     3.9240     0.0000
 15 C      6.2546     6.0000    -0.2546     3.7568     3.7568    -0.0000
 16 H      0.8460     1.0000     0.1540     0.9675     0.9675    -0.0000
 17 C      6.1232     6.0000    -0.1232     3.8004     3.8004    -0.0000
 18 H      0.8462     1.0000     0.1538     0.9662     0.9662    -0.0000
 19 C      6.1542     6.0000    -0.1542     3.8088     3.8088     0.0000
 20 H      0.8464     1.0000     0.1536     0.9681     0.9681     0.0000
 21 C      6.2060     6.0000    -0.2060     3.7232     3.7232     0.0000
 22 H      0.8487     1.0000     0.1513     0.9699     0.9699     0.0000
 23 C      5.9874     6.0000     0.0126     3.8626     3.8626     0.0000
 24 Cl    17.3682    17.0000    -0.3682     1.0711     1.0711    -0.0000
 25 Cl    17.3813    17.0000    -0.3813     1.0550     1.0550    -0.0000
 26 C      5.4063     6.0000     0.5937     3.2654     3.2654     0.0000
 27 O      8.2908     8.0000    -0.2908     2.3362     2.3362     0.0000

  Mayer bond orders larger than 0.100000
B(  0-Ru,  1-O ) :   0.1655 B(  0-Ru,  2-C ) :   1.5535 B(  0-Ru, 24-Cl) :   1.0429 
B(  0-Ru, 25-Cl) :   1.0141 B(  0-Ru, 26-C ) :   1.3315 B(  0-Ru, 27-O ) :   0.1811 
B(  1-O ,  4-C ) :   0.7322 B(  1-O , 14-C ) :   1.0619 B(  2-C ,  3-H ) :   0.9239 
B(  2-C , 23-C ) :   1.0558 B(  4-C ,  5-H ) :   0.9502 B(  4-C ,  6-C ) :   0.9365 
B(  4-C , 10-C ) :   0.9379 B(  6-C ,  7-H ) :   0.9546 B(  6-C ,  8-H ) :   0.9701 
B(  6-C ,  9-H ) :   0.9498 B( 10-C , 11-H ) :   0.9636 B( 10-C , 12-H ) :   0.9515 
B( 10-C , 13-H ) :   0.9593 B( 14-C , 15-C ) :   1.3577 B( 14-C , 23-C ) :   1.4149 
B( 15-C , 16-H ) :   0.9406 B( 15-C , 17-C ) :   1.3578 B( 17-C , 18-H ) :   0.9475 
B( 17-C , 19-C ) :   1.3824 B( 19-C , 20-H ) :   0.9449 B( 19-C , 21-C ) :   1.4236 
B( 21-C , 22-H ) :   0.9432 B( 21-C , 23-C ) :   1.2320 B( 26-C , 27-O ) :   2.1162 


-------
TIMINGS
-------

Total SCF time: 0 days 0 hours 0 min 7 sec 

Total time                  ....       7.846 sec
Sum of individual times     ....       6.929 sec  ( 88.3%)

SCF preparation             ....       2.329 sec  ( 29.7%)
Fock matrix formation       ....       3.023 sec  ( 38.5%)
  Startup                   ....       0.227 sec  (  7.5% of F)
  Split-RI-J                ....       0.507 sec  ( 16.8% of F)
  XC integration            ....       1.980 sec  ( 65.5% of F)
    XC Preparation          ....       0.000 sec  (  0.0% of XC)
    Basis function eval.    ....       0.150 sec  (  7.6% of XC)
    Density eval.           ....       0.394 sec  ( 19.9% of XC)
    XC-Functional eval.     ....       0.061 sec  (  3.1% of XC)
    XC-Potential eval.      ....       0.485 sec  ( 24.5% of XC)
Diagonalization             ....       0.000 sec  (  0.0%)
Density matrix formation    ....       0.361 sec  (  4.6%)
Total Energy calculation    ....       0.137 sec  (  1.7%)
Population analysis         ....       0.308 sec  (  3.9%)
Orbital Transformation      ....       0.173 sec  (  2.2%)
Orbital Orthonormalization  ....       0.000 sec  (  0.0%)
DIIS solution               ....       0.283 sec  (  3.6%)
SOSCF solution              ....       0.314 sec  (  4.0%)
Finished LeanSCF after   8.0 sec

Maximum memory used throughout the entire LEANSCF-calculation: 43.8 MB


-------------------------------------------------------------------------------
                          DFT DISPERSION CORRECTION                            
                                                                               
                                DFTD4 V3.4.0                                   
-------------------------------------------------------------------------------
The R2SCAN3C composite method is recognized
Using three-body term ABC
Active option DFTDOPT                   ...         5   

-------------------------   ----------------
Dispersion correction           -0.014924932
-------------------------   ----------------

------------------   -----------------
gCP correction             0.013667615
------------------   -----------------

-------------------------   --------------------
FINAL SINGLE POINT ENERGY     -1592.178801452547
-------------------------   --------------------



           ************************************************************
[...]

  6 C s       :     2.966870  s :     2.966870
      pz      :     1.101502  p :     3.351230
      px      :     1.142435
      py      :     1.107292
      dz2     :     0.009403  d :     0.060763
      dxz     :     0.019391
      dyz     :     0.011746
      dx2y2   :     0.009340
      dxy     :     0.010882

  7 H s       :     0.789056  s :     0.789056
      pz      :     0.010744  p :     0.043897
      px      :     0.020274
      py      :     0.012879

  8 H s       :     0.791234  s :     0.791234
      pz      :     0.009187  p :     0.043335
      px      :     0.010018
      py      :     0.024129

  9 H s       :     0.774772  s :     0.774772
      pz      :     0.019378  p :     0.044913
      px      :     0.017890
      py      :     0.007645

 10 C s       :     2.962657  s :     2.962657
      pz      :     1.149886  p :     3.348455
      px      :     1.077823
      py      :     1.120745
      dz2     :     0.007258  d :     0.060447
      dxz     :     0.019838
      dyz     :     0.009408
      dx2y2   :     0.012766
      dxy     :     0.011177

 11 H s       :     0.776406  s :     0.776406
      pz      :     0.019539  p :     0.044416
      px      :     0.016911
      py      :     0.007966

 12 H s       :     0.788308  s :     0.788308
      pz      :     0.010096  p :     0.043265
      px      :     0.008592
      py      :     0.024578

 13 H s       :     0.773938  s :     0.773938
      pz      :     0.020176  p :     0.045055
      px      :     0.011191
      py      :     0.013688

 14 C s       :     2.765392  s :     2.765392
      pz      :     0.910632  p :     2.830383
      px      :     0.987819
      py      :     0.931932
      dz2     :     0.014459  d :     0.155353
      dxz     :     0.025542
      dyz     :     0.021037
      dx2y2   :     0.043448
      dxy     :     0.050867

 15 C s       :     2.889595  s :     2.889595
      pz      :     1.042524  p :     3.188238
      px      :     1.046035
      py      :     1.099679
      dz2     :     0.005766  d :     0.077922
      dxz     :     0.012620
      dyz     :     0.008029
      dx2y2   :     0.027856
      dxy     :     0.023651

 16 H s       :     0.771906  s :     0.771906
      pz      :     0.013048  p :     0.046222
      px      :     0.009755
      py      :     0.023419

 17 C s       :     2.908360  s :     2.908360
      pz      :     0.964524  p :     3.134730
      px      :     1.096206
      py      :     1.074000
      dz2     :     0.007547  d :     0.082119
      dxz     :     0.007666
      dyz     :     0.014161
      dx2y2   :     0.028149
      dxy     :     0.024597

 18 H s       :     0.781101  s :     0.781101
      pz      :     0.009313  p :     0.044149
      px      :     0.027749
      py      :     0.007087

 19 C s       :     2.903644  s :     2.903644
      pz      :     1.011238  p :     3.187116
      px      :     1.092053
      py      :     1.083825
      dz2     :     0.007403  d :     0.081198
      dxz     :     0.011626
      dyz     :     0.008891
      dx2y2   :     0.025204
      dxy     :     0.028075

 20 H s       :     0.780708  s :     0.780708
      pz      :     0.009305  p :     0.044551
      px      :     0.015722
      py      :     0.019524

 21 C s       :     2.901387  s :     2.901387
      pz      :     0.970486  p :     3.126397
      px      :     1.083819
      py      :     1.072092
      dz2     :     0.005663  d :     0.081567
      dxz     :     0.014586
      dyz     :     0.007689
      dx2y2   :     0.025453
      dxy     :     0.028175

 22 H s       :     0.776258  s :     0.776258
      pz      :     0.011669  p :     0.044417
      px      :     0.009268
      py      :     0.023480

 23 C s       :     2.841563  s :     2.841563
      pz      :     1.005816  p :     3.114969
      px      :     1.064253
      py      :     1.044900
      dz2     :     0.008940  d :     0.099459
      dxz     :     0.013415
      dyz     :     0.013189
      dx2y2   :     0.031989
      dxy     :     0.031926

 24 Cls       :     5.710528  s :     5.710528
      pz      :     3.536088  p :    11.269523
      px      :     3.877373
      py      :     3.856062
      dz2     :     0.020058  d :     0.057034
      dxz     :     0.018010
      dyz     :     0.015392
      dx2y2   :     0.001773
      dxy     :     0.001801

 25 Cls       :     5.712542  s :     5.712542
      pz      :     3.701316  p :    11.280932
      px      :     3.886107
      py      :     3.693509
      dz2     :     0.017185  d :     0.056271
      dxz     :     0.010621
      dyz     :     0.014607
      dx2y2   :     0.004925
      dxy     :     0.008933

 26 C s       :     2.965393  s :     2.965393
      pz      :     0.752738  p :     2.518634
      px      :     0.953332
      py      :     0.812565
      dz2     :     0.022248  d :     0.170313
      dxz     :     0.039095
      dyz     :     0.019266
      dx2y2   :     0.048837
      dxy     :     0.040867

 27 O s       :     3.545137  s :     3.545137
      pz      :     1.495361  p :     4.517057
      px      :     1.525384
      py      :     1.496312
      dz2     :     0.022596  d :     0.176011
      dxz     :     0.038259
      dyz     :     0.018588
      dx2y2   :     0.039672
      dxy     :     0.056896



                      *****************************
                      * MAYER POPULATION ANALYSIS *
                      *****************************

  NA   - Mulliken gross atomic population
  ZA   - Total nuclear charge
  QA   - Mulliken gross atomic charge
  VA   - Mayer's total valence
  BVA  - Mayer's bonded valence
  FA   - Mayer's free valence

  ATOM       NA         ZA         QA         VA         BVA        FA
  0 Ru    15.8929    16.0000     0.1071     5.5911     5.5911    -0.0000
  1 O      8.0917     8.0000    -0.0917     2.0311     2.0311     0.0000
  2 C      6.1035     6.0000    -0.1035     3.5337     3.5337    -0.0000
  3 H      0.8507     1.0000     0.1493     0.9587     0.9587    -0.0000
  4 C      6.0726     6.0000    -0.0726     3.6494     3.6494    -0.0000
  5 H      0.8464     1.0000     0.1536     0.9495     0.9495     0.0000
  6 C      6.4189     6.0000    -0.4189     3.7091     3.7091     0.0000
  7 H      0.8449     1.0000     0.1551     0.9664     0.9664     0.0000
  8 H      0.8403     1.0000     0.1597     0.9616     0.9616    -0.0000
  9 H      0.8071     1.0000     0.1929     0.9572     0.9572    -0.0000
 10 C      6.4640     6.0000    -0.4640     3.6748     3.6748     0.0000
 11 H      0.8187     1.0000     0.1813     0.9629     0.9629     0.0000
 12 H      0.8471     1.0000     0.1529     0.9629     0.9629    -0.0000
 13 H      0.8066     1.0000     0.1934     0.9558     0.9558    -0.0000
 14 C      5.7351     6.0000     0.2649     3.9240     3.9240     0.0000
 15 C      6.2546     6.0000    -0.2546     3.7568     3.7568     0.0000
 16 H      0.8460     1.0000     0.1540     0.9675     0.9675     0.0000
 17 C      6.1232     6.0000    -0.1232     3.8004     3.8004    -0.0000
 18 H      0.8462     1.0000     0.1538     0.9662     0.9662    -0.0000
 19 C      6.1542     6.0000    -0.1542     3.8088     3.8088     0.0000
 20 H      0.8464     1.0000     0.1536     0.9681     0.9681     0.0000
 21 C      6.2060     6.0000    -0.2060     3.7232     3.7232     0.0000
 22 H      0.8487     1.0000     0.1513     0.9699     0.9699     0.0000
 23 C      5.9875     6.0000     0.0125     3.8626     3.8626     0.0000
 24 Cl    17.3681    17.0000    -0.3681     1.0712     1.0712    -0.0000
 25 Cl    17.3813    17.0000    -0.3813     1.0550     1.0550     0.0000
 26 C      5.4063     6.0000     0.5937     3.2653     3.2653    -0.0000
 27 O      8.2908     8.0000    -0.2908     2.3361     2.3361     0.0000

  Mayer bond orders larger than 0.100000
B(  0-Ru,  1-O ) :   0.1655 B(  0-Ru,  2-C ) :   1.5536 B(  0-Ru, 24-Cl) :   1.0430 
B(  0-Ru, 25-Cl) :   1.0141 B(  0-Ru, 26-C ) :   1.3315 B(  0-Ru, 27-O ) :   0.1811 
B(  1-O ,  4-C ) :   0.7322 B(  1-O , 14-C ) :   1.0620 B(  2-C ,  3-H ) :   0.9239 
B(  2-C , 23-C ) :   1.0557 B(  4-C ,  5-H ) :   0.9503 B(  4-C ,  6-C ) :   0.9365 
B(  4-C , 10-C ) :   0.9380 B(  6-C ,  7-H ) :   0.9546 B(  6-C ,  8-H ) :   0.9701 
B(  6-C ,  9-H ) :   0.9498 B( 10-C , 11-H ) :   0.9636 B( 10-C , 12-H ) :   0.9515 
B( 10-C , 13-H ) :   0.9593 B( 14-C , 15-C ) :   1.3576 B( 14-C , 23-C ) :   1.4149 
B( 15-C , 16-H ) :   0.9405 B( 15-C , 17-C ) :   1.3577 B( 17-C , 18-H ) :   0.9475 
B( 17-C , 19-C ) :   1.3824 B( 19-C , 20-H ) :   0.9449 B( 19-C , 21-C ) :   1.4235 
B( 21-C , 22-H ) :   0.9432 B( 21-C , 23-C ) :   1.2321 B( 26-C , 27-O ) :   2.1161 


-------
TIMINGS
-------

Total SCF time: 0 days 0 hours 0 min 11 sec 

Total time                  ....      11.247 sec
Sum of individual times     ....      10.324 sec  ( 91.8%)

SCF preparation             ....       2.240 sec  ( 19.9%)
Fock matrix formation       ....       5.803 sec  ( 51.6%)
  Startup                   ....       0.410 sec  (  7.1% of F)
  Split-RI-J                ....       1.012 sec  ( 17.4% of F)
  XC integration            ....       3.848 sec  ( 66.3% of F)
    XC Preparation          ....       0.000 sec  (  0.0% of XC)
    Basis function eval.    ....       0.330 sec  (  8.6% of XC)
    Density eval.           ....       0.707 sec  ( 18.4% of XC)
    XC-Functional eval.     ....       0.135 sec  (  3.5% of XC)
    XC-Potential eval.      ....       0.719 sec  ( 18.7% of XC)
Diagonalization             ....       0.000 sec  (  0.0%)
Density matrix formation    ....       0.562 sec  (  5.0%)
Total Energy calculation    ....       0.229 sec  (  2.0%)
Population analysis         ....       0.339 sec  (  3.0%)
Orbital Transformation      ....       0.188 sec  (  1.7%)
Orbital Orthonormalization  ....       0.000 sec  (  0.0%)
DIIS solution               ....       0.244 sec  (  2.2%)
SOSCF solution              ....       0.720 sec  (  6.4%)
Finished LeanSCF after  11.4 sec

Maximum memory used throughout the entire LEANSCF-calculation: 44.0 MB


-------------------------------------------------------------------------------
                          DFT DISPERSION CORRECTION                            
                                                                               
                                DFTD4 V3.4.0                                   
-------------------------------------------------------------------------------
The R2SCAN3C composite method is recognized
Using three-body term ABC
Active option DFTDOPT                   ...         5   

-------------------------   ----------------
Dispersion correction           -0.014924277
-------------------------   ----------------

------------------   -----------------
gCP correction             0.013666381
------------------   -----------------

-------------------------   --------------------
FINAL SINGLE POINT ENERGY     -1592.178801746293
-------------------------   --------------------

                                *** OPTIMIZATION RUN DONE ***



           ************************************************************
           *        Program running with 20 parallel MPI-processes    *
           *              working on a common directory               *
           ************************************************************

------------------------------------------------------------------------------
                              ORCA PROPERTY CALCULATIONS
------------------------------------------------------------------------------

GBWName                                 ... cli47.gbw
Number of atoms                         ...     28
Number of basis functions               ...    404
Max core memory                         ...   1400 MB

Electric properties:
Dipole moment                           ... YES
Quadrupole moment                       ...  NO
Static polarizability (Dipole/Dipole)   ...  NO
Static polarizability (Dipole/Quad.)    ...  NO
Static polarizability (Quad./Quad.)     ...  NO
Static polarizability (Velocity)        ...  NO

Atomic electric properties:
Dipole moment                           ...  NO
Quadrupole moment                       ...  NO
Static polarizability                   ...  NO

Choice of electric origin               ... Center of mass
Position of electric origin             ...     0.005561    -0.074853    -0.254672

General magnetic properties:
Magnetizability                         ...  NO

EPR properties:
g-Tensor (aka g-matrix)                 ...  NO
Zero-Field splitting spin-orbit         ...  NO
Zero-field splitting spin-spin          ...  NO
Hyperfine couplings                     ...  NO (   0 nuclei)
Quadrupole couplings                    ...  NO (   0 nuclei)
Contact density                         ...  NO (   0 nuclei)

NMR properties:
Chemical shifts                         ...  NO (   0 nuclei)
Spin-rotation constants                 ...  NO (   0 nuclei)
Spin-spin couplings                     ...  NO (   0 nuclei,    0 pairs)

Choice of magnetic origin               ... GIAO
Position of magnetic origin             ...     0.000000     0.000000     0.000000

Properties with geometric perturbations:
SCF Hessian                             ...  NO
IR spectrum                             ...  NO
VCD spectrum                            ...  NO
X-ray spectroscopy properties:
SCF XES/XAS/RIXS spectra                ...  NO


-------------
DIPOLE MOMENT
-------------

Method             : SCF
Type of density    : Electron Density
Multiplicity       :   1
Irrep              :   0
Energy             : -1592.1775438502620545 Eh
Relativity type    : 
Basis              : AO
                                X                 Y                 Z
Electronic contribution:    -90.883255256      14.138631081      10.837676680
Nuclear contribution   :     93.468042766     -14.374191625     -11.138517919
                        -----------------------------------------
Total Dipole Moment    :      2.584787510      -0.235560544      -0.300841239
                        -----------------------------------------
Magnitude (a.u.)       :      2.612875943
Magnitude (Debye)      :      6.641402847



--------------------
Rotational spectrum 
--------------------
 
Rotational constants in cm-1:             0.016124             0.009972             0.008521 
Rotational constants in MHz :           483.372723           298.953204           255.441707 

Dipole components along the rotational axes: 
x,y,z [a.u.] :    -2.582926    -0.393883    -0.021679 
x,y,z [Debye]:    -6.565276    -1.001170    -0.055104 

 

Dipole moment calculation done in   0.1 sec 

Maximum memory used throughout the entire PROP-calculation: 26.4 MB

--------------------------------
SUGGESTED CITATIONS FOR THIS RUN
--------------------------------

Below you find a list of papers that are relevant to this ORCA run
We neither can nor want to force you to cite these papers, but we appreciate if you do
You receive ORCA, which is the product of decades of hard work by many enthusiastic individuals, for free
The only thing we kindly ask in return is that you cite our papers,
We deeply appreciate it, if you show your appreciation for ORCA by not just citing the generic ORCA reference.

Please note that relegating all ORCA citations to the supporting information does *not* help us.
SI sections are not indexed - citations you put there will not count into any citation statistics
But we need these citations in order to attract the funding resources that allow us to do what we are doing

Therefore, if you are a happy ORCA user, please consider citing a few of the papers listed below in the main body of your paper

In addition to the list printed below, the program has created the file cli47.bibtex that contains the list in bibtex format
You can import this file easily into all common literature databanks and citation aid programs


List of essential papers. We consider these as the minimum necessary citations

  1. Neese,F.
     Software update: the ORCA program system, version 5.0
     WIRES Comput. Molec. Sci., 2022 12(1)e1606
     doi.org/10.1002/wcms.1606
  2. Grimme,S.; Hansen,A.; Ehlert,S.; Mewes,J.
     r2SCAN-3c: A 'Swiss army knife' composite electronic-structure method
     J. Chem. Phys., 2021 154 064103
     doi.org/10.1063/5.0040021

List of papers to cite with high priority. The work reported in these papers was absolutely
necessary for this run to complete.
Our perspective: the developers of density functionals and basis sets usually get cited in chemistry papers
Good! But without the algorithms to do something with them, the functionals or basis sets would not do anything.
Hence, in our opinion, the algorithm design and method developments papers are equally worthy of getting cited

  1. Neese,F.
     An improvement of the resolution of the identity approximation for the formation of the Coulomb matrix
     J. Comp. Chem., 2003 24(14)1740-1747
     doi.org/10.1002/jcc.10318
  2. Neese,F.
     The SHARK Integral Generation and Digestion System
     J. Comp. Chem., 2022  1-16
     doi.org/10.1002/jcc.26942
  3. Lehtola,S.; Steigemann,C.; Oliveira,M.; Marques,M.
     Recent developments in Libxc - A comprehensive library of functionals for density functional theory
     Software X, 2018 7 
     doi.org/10.1016/j.softx.2017.11.002
  4. Caldeweyher,E.; Bannwarth,C.; Grimme,S.
     Extension of the D3 dispersion coefficient model
     J. Chem. Phys., 2017 147 034112
     doi.org/10.1063/1.4993215
  5. Caldeweyher,E.; Ehlert,S.; Hansen,A.; Neugebauer,H.; Spicher,S.; Bannwarth,C.; Grimme,S.
     A generally applicable atomic-charge dependent London dispersion correction
     J. Chem. Phys., 2019 150 154122
     doi.org/10.1063/1.5090222
  6. Caldeweyher,E.; Mewes,J.; Ehlert,S.; Grimme,S.
     Extension and evaluation of the D4 London-dispersion model for periodic systems
     Phys. Chem. Chem. Phys., 2020 22(16)8499-8512
     doi.org/10.1039/D0CP00502A
  7. Wittmann,L.; Gordiy,I.; Friede,M.; Helmich-Paris,B.; Grimme,S.; Hansen,A.; Bursch,M.
     Extension of the D3 and D4 London Dispersion Corrections to the full Actinides Series
     Phys. Chem. Chem. Phys., 2024 26(32)21379-21394
     doi.org/https://doi.org/10.1039/D4CP01514B 

List of suggested additional citations. These are papers that are important in the 'surrounding' of 
of this run, or papers that preceded the highly important papers. If you like your results we are grateful for a citation.

  1. Neese,F.
     The ORCA program system
     WIRES Comput. Molec. Sci., 2012 2(1)73-78
     doi.org/10.1002/wcms.81
  2. Neese,F.
     Software update: the ORCA program system, version 4.0
     WIRES Comput. Molec. Sci., 2018 8(1)1-6
     doi.org/10.1002/wcms.1327
  3. Neese,F.; Wennmohs,F.; Becker,U.; Riplinger,C.
     The ORCA quantum chemistry program package
     J. Chem. Phys., 2020 152 Art. No. L224108
     doi.org/10.1063/5.0004608

List of optional additional citations

  1. Neese,F.
     Approximate second-order SCF convergence for spin unrestricted wavefunctions
     Chem. Phys. Lett., 2000 325(1-3)93-98
     doi.org/10.1016/s0009-2614(00)00662-x

Timings for individual modules:

Sum of individual times          ...       48.990 sec (=   0.817 min)
Startup calculation              ...       10.525 sec (=   0.175 min)  21.5 %
SCF iterations                   ...       27.172 sec (=   0.453 min)  55.5 %
Property calculations            ...        2.550 sec (=   0.043 min)   5.2 %
SCF Gradient evaluation          ...        8.551 sec (=   0.143 min)  17.5 %
Geometry relaxation              ...        0.192 sec (=   0.003 min)   0.4 %
                             ****ORCA TERMINATED NORMALLY****
TOTAL RUN TIME: 0 days 0 hours 0 minutes 54 seconds 154 msec
465.44user 134.97system 0:54.31elapsed 1105%CPU (0avgtext+0avgdata 392696maxresident)k
13406418inputs+851654outputs (117570major+6785557minor)pagefaults 0swaps
