 Entering Gaussian System, Link 0=g03
 Initial command:
 /global/apps/gaussian/03.e01/l1.exe /global/work/marcof/1897177.stallo-adm.uit.no/Adn2mcompl_1_mview/Gau-31478.inp -scrdir=/global/work/marcof/1897177.stallo-adm.uit.no/Adn2mcompl_1_mview/
 Entering Link 1 = /global/apps/gaussian/03.e01/l1.exe PID=     31479.
  
 Copyright (c) 1988,1990,1992,1993,1995,1998,2003,2004,2007, Gaussian, Inc.
                  All Rights Reserved.
  
 This is the Gaussian(R) 03 program.  It is based on the
 the Gaussian(R) 98 system (copyright 1998, Gaussian, Inc.),
 the Gaussian(R) 94 system (copyright 1995, Gaussian, Inc.),
 the Gaussian 92(TM) system (copyright 1992, Gaussian, Inc.),
 the Gaussian 90(TM) system (copyright 1990, Gaussian, Inc.),
 the Gaussian 88(TM) system (copyright 1988, Gaussian, Inc.),
 the Gaussian 86(TM) system (copyright 1986, Carnegie Mellon
 University), and the Gaussian 82(TM) system (copyright 1983,
 Carnegie Mellon University). Gaussian is a federally registered
 trademark of Gaussian, Inc.
  
 This software contains proprietary and confidential information,
 including trade secrets, belonging to Gaussian, Inc.
  
 This software is provided under written license and may be
 used, copied, transmitted, or stored only in accord with that
 written license.
  
 The following legend is applicable only to US Government
 contracts under FAR:
  
                    RESTRICTED RIGHTS LEGEND
  
 Use, reproduction and disclosure by the US Government is
 subject to restrictions as set forth in subparagraphs (a)
 and (c) of the Commercial Computer Software - Restricted
 Rights clause in FAR 52.227-19.
  
 Gaussian, Inc.
 340 Quinnipiac St., Bldg. 40, Wallingford CT 06492
  
  
 ---------------------------------------------------------------
 Warning -- This program may not be used in any manner that
 competes with the business of Gaussian, Inc. or will provide
 assistance to any competitor of Gaussian, Inc.  The licensee
 of this program is prohibited from giving any competitor of
 Gaussian, Inc. access to this program.  By using this program,
 the user acknowledges that Gaussian, Inc. is engaged in the
 business of creating and licensing software in the field of
 computational chemistry and represents and warrants to the
 licensee that it is not a competitor of Gaussian, Inc. and that
 it will not use this program in any manner prohibited above.
 ---------------------------------------------------------------
  

 Cite this work as:
 Gaussian 03, Revision E.01,
 M. J. Frisch, G. W. Trucks, H. B. Schlegel, G. E. Scuseria, 
 M. A. Robb, J. R. Cheeseman, J. A. Montgomery, Jr., T. Vreven, 
 K. N. Kudin, J. C. Burant, J. M. Millam, S. S. Iyengar, J. Tomasi, 
 V. Barone, B. Mennucci, M. Cossi, G. Scalmani, N. Rega, 
 G. A. Petersson, H. Nakatsuji, M. Hada, M. Ehara, K. Toyota, 
 R. Fukuda, J. Hasegawa, M. Ishida, T. Nakajima, Y. Honda, O. Kitao, 
 H. Nakai, M. Klene, X. Li, J. E. Knox, H. P. Hratchian, J. B. Cross, 
 V. Bakken, C. Adamo, J. Jaramillo, R. Gomperts, R. E. Stratmann, 
 O. Yazyev, A. J. Austin, R. Cammi, C. Pomelli, J. W. Ochterski, 
 P. Y. Ayala, K. Morokuma, G. A. Voth, P. Salvador, J. J. Dannenberg, 
 V. G. Zakrzewski, S. Dapprich, A. D. Daniels, M. C. Strain, 
 O. Farkas, D. K. Malick, A. D. Rabuck, K. Raghavachari, 
 J. B. Foresman, J. V. Ortiz, Q. Cui, A. G. Baboul, S. Clifford, 
 J. Cioslowski, B. B. Stefanov, G. Liu, A. Liashenko, P. Piskorz, 
 I. Komaromi, R. L. Martin, D. J. Fox, T. Keith, M. A. Al-Laham, 
 C. Y. Peng, A. Nanayakkara, M. Challacombe, P. M. W. Gill, 
 B. Johnson, W. Chen, M. W. Wong, C. Gonzalez, and J. A. Pople, 
 Gaussian, Inc., Wallingford CT, 2004.
 
 ******************************************
 Gaussian 03:  EM64L-G03RevE.01 11-Sep-2007
                20-Nov-2013 
 ******************************************
 %NProcShared=1
 Will use up to    1 processors via shared memory.
 %LindaWorkers=c18-9
 SetLPE:  input flags="-v -nodelist "c18-9 " "
 SetLPE:    new flags="-v -nodelist "c18-9 "  -nodelist 'c18-9.local'"
 Will use up to    1 processors via Linda.
 %NPROCSHARED=8
 Will use up to    8 processors via shared memory.
 %CHK=Adn2mcompl_1_mview
 %MEM=14400MB
 --------------------------------------------------------------------
 #P HF/LANL2MB vshift=1000 SP # nosym SCFCyc=180 SCF=(novaracc) 5d 7f
 --------------------------------------------------------------------
 1/38=1/1;
 2/15=1,17=6,18=5,40=1/2;
 3/5=6,6=2,8=11,11=9,16=1,25=1,30=1/1,2,3;
 4//1;
 5/5=2,7=180,10=1000,32=1,38=1/2;
 6/7=2,8=2,9=2,10=2,28=1/1;
 99/5=1,9=1/99;
 Leave Link    1 at Wed Nov 20 14:10:52 2013, MaxMem= 1887436800 cpu:       2.6
 (Enter /global/apps/gaussian/03.e01/l101.exe)
 --------------------------------------
 Compound Job Adn2mcompl_1_mview Step 0
 --------------------------------------
 Symbolic Z-matrix:
 Charge =  0 Multiplicity = 1
 H                     5.1439   -3.3927   -2.721 
 C                     4.6754   -2.683    -3.2285 
 H                     3.9972   -3.0151   -3.8683 
 Ru                    5.0974   -0.5822   -2.9659 
 Cl                    7.4944   -0.3133   -2.3551 
 Cl                    4.9       0.4771   -5.2066 
 C                     3.7357    0.2889   -1.4802 
 N                     4.0006    1.3875   -0.7416 
 C                     2.9577    1.6808    0.0536 
 H                     2.8832    2.4562    0.7175 
 C                     1.9946    0.722    -0.1861 
 H                     1.0802    0.6642    0.2679 
 N                     2.4976   -0.1081   -1.116 
 C                     1.8551   -1.1984   -1.6208 
 C                     0.9846   -1.063    -2.7393 
 C                     0.2779   -2.1983   -3.1938 
 H                    -0.375    -2.1048   -3.9781 
 C                     0.4393   -3.4616   -2.5927 
 C                     1.329    -3.5824   -1.5052 
 H                     1.4558   -4.5027   -1.0756 
 C                     2.038    -2.4678   -1.0042 
 C                     2.9539   -2.64      0.1568 
 H                     2.6158   -2.0162    0.9864 
 H                     3.9684   -2.3443   -0.1183 
 H                     2.9923   -3.6742    0.5071 
 N                    -0.2553   -4.5536   -3.0639 
 C                    -0.1556   -4.9417   -4.4499 
 H                     0.0204   -6.0159   -4.5326 
 H                     0.6672   -4.4363   -4.9635 
 H                    -1.0836   -4.6983   -4.9716 
 C                    -1.0976   -5.331    -2.1888 
 H                    -2.086    -5.4577   -2.6349 
 H                    -0.6551   -6.3163   -2.0287 
 H                    -1.238    -4.8587   -1.2125 
 C                     0.7457    0.2206   -3.4548 
 H                     1.5119    0.9929   -3.1514 
 H                     0.9884    0.0367   -4.5441 
 H                    -0.3697    0.4956   -3.22 
 C                     5.182     2.0637   -0.7867 
 C                     5.3843    3.0864   -1.7528 
 C                     6.6343    3.7427   -1.8 
 H                     6.7993    4.4678   -2.5024 
 C                     7.6685    3.4283   -0.8934 
 C                     7.4398    2.4245    0.0695 
 H                     8.1839    2.2015    0.7371 
 C                     6.2138    1.728     0.1336 
 C                     6.0275    0.662     1.1553 
 H                     5.2276    0.9536    1.8386 
 H                     6.93      0.483     1.7459 
 H                     5.758    -0.2771    0.6674 
 N                     8.8742    4.0956   -0.9364 
 C                     8.9237    5.5361   -0.8627 
 H                     9.6184    5.8455   -0.0796 
 H                     9.262     5.9477   -1.8161 
 H                     7.9515    5.9779   -0.6271 
 C                     10.1137   3.3668   -1.0471 
 H                     10.7027   3.7505   -1.8826 
 H                     9.9588    2.2977   -1.2205 
 H                     10.6931   3.4791   -0.1282 
 C                     4.3047    3.4897   -2.6946 
 H                     4.636     4.2471   -3.4089 
 H                     3.9521    2.6283   -3.2632 
 H                     3.4709    3.9039   -2.1251 
 
                    Isotopes and Nuclear Properties:
 (Nuclear quadrupole moments (NQMom) in fm**2, nuclear magnetic moments (NMagM)
  in nuclear magnetons)

  Atom         1           2           3           4           5           6           7           8           9          10
 IAtWgt=           1          12           1         102          35          35          12          14          12           1
 AtmWgt=   1.0078250  12.0000000   1.0078250 101.9037000  34.9688527  34.9688527  12.0000000  14.0030740  12.0000000   1.0078250
 NucSpn=           1           0           1           0           3           3           0           2           0           1
 AtZEff=   0.0000000   0.0000000   0.0000000   0.0000000   0.0000000   0.0000000   0.0000000   0.0000000   0.0000000   0.0000000
 NQMom=    0.0000000   0.0000000   0.0000000   0.0000000  -8.1650000  -8.1650000   0.0000000   2.0440000   0.0000000   0.0000000
 NMagM=    2.7928460   0.0000000   2.7928460   0.0000000   0.8218740   0.8218740   0.0000000   0.4037610   0.0000000   2.7928460

  Atom        11          12          13          14          15          16          17          18          19          20
 IAtWgt=          12           1          14          12          12          12           1          12          12           1
 AtmWgt=  12.0000000   1.0078250  14.0030740  12.0000000  12.0000000  12.0000000   1.0078250  12.0000000  12.0000000   1.0078250
 NucSpn=           0           1           2           0           0           0           1           0           0           1
 AtZEff=   0.0000000   0.0000000   0.0000000   0.0000000   0.0000000   0.0000000   0.0000000   0.0000000   0.0000000   0.0000000
 NQMom=    0.0000000   0.0000000   2.0440000   0.0000000   0.0000000   0.0000000   0.0000000   0.0000000   0.0000000   0.0000000
 NMagM=    0.0000000   2.7928460   0.4037610   0.0000000   0.0000000   0.0000000   2.7928460   0.0000000   0.0000000   2.7928460

  Atom        21          22          23          24          25          26          27          28          29          30
 IAtWgt=          12          12           1           1           1          14          12           1           1           1
 AtmWgt=  12.0000000  12.0000000   1.0078250   1.0078250   1.0078250  14.0030740  12.0000000   1.0078250   1.0078250   1.0078250
 NucSpn=           0           0           1           1           1           2           0           1           1           1
 AtZEff=   0.0000000   0.0000000   0.0000000   0.0000000   0.0000000   0.0000000   0.0000000   0.0000000   0.0000000   0.0000000
 NQMom=    0.0000000   0.0000000   0.0000000   0.0000000   0.0000000   2.0440000   0.0000000   0.0000000   0.0000000   0.0000000
 NMagM=    0.0000000   0.0000000   2.7928460   2.7928460   2.7928460   0.4037610   0.0000000   2.7928460   2.7928460   2.7928460

  Atom        31          32          33          34          35          36          37          38          39          40
 IAtWgt=          12           1           1           1          12           1           1           1          12          12
 AtmWgt=  12.0000000   1.0078250   1.0078250   1.0078250  12.0000000   1.0078250   1.0078250   1.0078250  12.0000000  12.0000000
 NucSpn=           0           1           1           1           0           1           1           1           0           0
 AtZEff=   0.0000000   0.0000000   0.0000000   0.0000000   0.0000000   0.0000000   0.0000000   0.0000000   0.0000000   0.0000000
 NQMom=    0.0000000   0.0000000   0.0000000   0.0000000   0.0000000   0.0000000   0.0000000   0.0000000   0.0000000   0.0000000
 NMagM=    0.0000000   2.7928460   2.7928460   2.7928460   0.0000000   2.7928460   2.7928460   2.7928460   0.0000000   0.0000000

  Atom        41          42          43          44          45          46          47          48          49          50
 IAtWgt=          12           1          12          12           1          12          12           1           1           1
 AtmWgt=  12.0000000   1.0078250  12.0000000  12.0000000   1.0078250  12.0000000  12.0000000   1.0078250   1.0078250   1.0078250
 NucSpn=           0           1           0           0           1           0           0           1           1           1
 AtZEff=   0.0000000   0.0000000   0.0000000   0.0000000   0.0000000   0.0000000   0.0000000   0.0000000   0.0000000   0.0000000
 NQMom=    0.0000000   0.0000000   0.0000000   0.0000000   0.0000000   0.0000000   0.0000000   0.0000000   0.0000000   0.0000000
 NMagM=    0.0000000   2.7928460   0.0000000   0.0000000   2.7928460   0.0000000   0.0000000   2.7928460   2.7928460   2.7928460

  Atom        51          52          53          54          55          56          57          58          59          60
 IAtWgt=          14          12           1           1           1          12           1           1           1          12
 AtmWgt=  14.0030740  12.0000000   1.0078250   1.0078250   1.0078250  12.0000000   1.0078250   1.0078250   1.0078250  12.0000000
 NucSpn=           2           0           1           1           1           0           1           1           1           0
 AtZEff=   0.0000000   0.0000000   0.0000000   0.0000000   0.0000000   0.0000000   0.0000000   0.0000000   0.0000000   0.0000000
 NQMom=    2.0440000   0.0000000   0.0000000   0.0000000   0.0000000   0.0000000   0.0000000   0.0000000   0.0000000   0.0000000
 NMagM=    0.4037610   0.0000000   2.7928460   2.7928460   2.7928460   0.0000000   2.7928460   2.7928460   2.7928460   0.0000000

  Atom        61          62          63
 IAtWgt=           1           1           1
 AtmWgt=   1.0078250   1.0078250   1.0078250
 NucSpn=           1           1           1
 AtZEff=   0.0000000   0.0000000   0.0000000
 NQMom=    0.0000000   0.0000000   0.0000000
 NMagM=    2.7928460   2.7928460   2.7928460
 Leave Link  101 at Wed Nov 20 14:10:57 2013, MaxMem= 1887436800 cpu:       2.9
 (Enter /global/apps/gaussian/03.e01/l202.exe)
 Symmetry turned off by external request.
 Stoichiometry    C24H32Cl2N4Ru
 Framework group  C1[X(C24H32Cl2N4Ru)]
 Deg. of freedom   183
 Full point group                 C1
                         Z-Matrix orientation:                         
 ---------------------------------------------------------------------
 Center     Atomic     Atomic              Coordinates (Angstroms)
 Number     Number      Type              X           Y           Z
 ---------------------------------------------------------------------
    1          1             0        5.143900   -3.392700   -2.721000
    2          6             0        4.675400   -2.683000   -3.228500
    3          1             0        3.997200   -3.015100   -3.868300
    4         44             0        5.097400   -0.582200   -2.965900
    5         17             0        7.494400   -0.313300   -2.355100
    6         17             0        4.900000    0.477100   -5.206600
    7          6             0        3.735700    0.288900   -1.480200
    8          7             0        4.000600    1.387500   -0.741600
    9          6             0        2.957700    1.680800    0.053600
   10          1             0        2.883200    2.456200    0.717500
   11          6             0        1.994600    0.722000   -0.186100
   12          1             0        1.080200    0.664200    0.267900
   13          7             0        2.497600   -0.108100   -1.116000
   14          6             0        1.855100   -1.198400   -1.620800
   15          6             0        0.984600   -1.063000   -2.739300
   16          6             0        0.277900   -2.198300   -3.193800
   17          1             0       -0.375000   -2.104800   -3.978100
   18          6             0        0.439300   -3.461600   -2.592700
   19          6             0        1.329000   -3.582400   -1.505200
   20          1             0        1.455800   -4.502700   -1.075600
   21          6             0        2.038000   -2.467800   -1.004200
   22          6             0        2.953900   -2.640000    0.156800
   23          1             0        2.615800   -2.016200    0.986400
   24          1             0        3.968400   -2.344300   -0.118300
   25          1             0        2.992300   -3.674200    0.507100
   26          7             0       -0.255300   -4.553600   -3.063900
   27          6             0       -0.155600   -4.941700   -4.449900
   28          1             0        0.020400   -6.015900   -4.532600
   29          1             0        0.667200   -4.436300   -4.963500
   30          1             0       -1.083600   -4.698300   -4.971600
   31          6             0       -1.097600   -5.331000   -2.188800
   32          1             0       -2.086000   -5.457700   -2.634900
   33          1             0       -0.655100   -6.316300   -2.028700
   34          1             0       -1.238000   -4.858700   -1.212500
   35          6             0        0.745700    0.220600   -3.454800
   36          1             0        1.511900    0.992900   -3.151400
   37          1             0        0.988400    0.036700   -4.544100
   38          1             0       -0.369700    0.495600   -3.220000
   39          6             0        5.182000    2.063700   -0.786700
   40          6             0        5.384300    3.086400   -1.752800
   41          6             0        6.634300    3.742700   -1.800000
   42          1             0        6.799300    4.467800   -2.502400
   43          6             0        7.668500    3.428300   -0.893400
   44          6             0        7.439800    2.424500    0.069500
   45          1             0        8.183900    2.201500    0.737100
   46          6             0        6.213800    1.728000    0.133600
   47          6             0        6.027500    0.662000    1.155300
   48          1             0        5.227600    0.953600    1.838600
   49          1             0        6.930000    0.483000    1.745900
   50          1             0        5.758000   -0.277100    0.667400
   51          7             0        8.874200    4.095600   -0.936400
   52          6             0        8.923700    5.536100   -0.862700
   53          1             0        9.618400    5.845500   -0.079600
   54          1             0        9.262000    5.947700   -1.816100
   55          1             0        7.951500    5.977900   -0.627100
   56          6             0       10.113700    3.366800   -1.047100
   57          1             0       10.702700    3.750500   -1.882600
   58          1             0        9.958800    2.297700   -1.220500
   59          1             0       10.693100    3.479100   -0.128200
   60          6             0        4.304700    3.489700   -2.694600
   61          1             0        4.636000    4.247100   -3.408900
   62          1             0        3.952100    2.628300   -3.263200
   63          1             0        3.470900    3.903900   -2.125100
 ---------------------------------------------------------------------
 Rotational constants (GHZ):      0.2446604      0.0645093      0.0615737
 Leave Link  202 at Wed Nov 20 14:11:02 2013, MaxMem= 1887436800 cpu:       0.2
 (Enter /global/apps/gaussian/03.e01/l301.exe)
 Standard basis: LANL2MB (5D, 7F)
 Integral buffers will be    131072 words long.
 Raffenetti 1 integral format.
 Two-electron integral symmetry is turned off.
   193 basis functions,   590 primitive gaussians,   194 cartesian basis functions
   117 alpha electrons      117 beta electrons
       nuclear repulsion energy      3278.5635979758 Hartrees.
 IExCor=   0 DFT=F Ex=HF Corr=None ExCW=0 ScaHFX=  1.000000
 ScaDFX=  1.000000  1.000000  1.000000  1.000000
 IRadAn=      0 IRanWt=     -1 IRanGd=            0 ICorTp=0
 NAtoms=   63 NActive=   63 NUniq=   63 SFac= 7.50D-01 NAtFMM=   80 NAOKFM=F Big=T
 Leave Link  301 at Wed Nov 20 14:11:08 2013, MaxMem= 1887436800 cpu:       0.1
 (Enter /global/apps/gaussian/03.e01/l302.exe)
 NPDir=0 NMtPBC=     1 NCelOv=     1 NCel=       1 NClECP=     1 NCelD=      1
         NCelK=      1 NCelE2=     1 NClLst=     1 CellRange=     0.0.
 One-electron integrals computed using PRISM.
   1 Symmetry operations used in ECPInt.
 ECPInt:  NShTT=    4753 NPrTT=   43666 LenC2=    3939 LenP2D=   22966.
 LDataN:  DoStor=F MaxTD1= 5 Len=  102
 LDataN:  DoStor=T MaxTD1= 5 Len=  102
 NBasis=   193 RedAO= T  NBF=   193
 NBsUse=   193 1.00D-06 NBFU=   193
 Leave Link  302 at Wed Nov 20 14:11:13 2013, MaxMem= 1887436800 cpu:       7.2
 (Enter /global/apps/gaussian/03.e01/l303.exe)
 DipDrv:  MaxL=1.
 Leave Link  303 at Wed Nov 20 14:11:18 2013, MaxMem= 1887436800 cpu:       0.8
 (Enter /global/apps/gaussian/03.e01/l401.exe)
 Harris functional with IExCor=  205 diagonalized for initial guess.
 ExpMin= 2.50D-02 ExpMax= 9.91D+01 ExpMxC= 9.91D+01 IAcc=3 IRadAn=         5 AccDes= 0.00D+00
 HarFok:  IExCor= 205 AccDes= 0.00D+00 IRadAn=         5 IDoV=1
 ScaDFX=  1.000000  1.000000  1.000000  1.000000
 Defaulting to unpruned grid for atomic number  44.
 Defaulting to unpruned grid for atomic number  44.
 Defaulting to unpruned grid for atomic number  44.
 Defaulting to unpruned grid for atomic number  44.
 Defaulting to unpruned grid for atomic number  44.
 Defaulting to unpruned grid for atomic number  44.
 Defaulting to unpruned grid for atomic number  44.
 Defaulting to unpruned grid for atomic number  44.
 Harris En=  203.606706694743    
 Leave Link  401 at Wed Nov 20 14:11:26 2013, MaxMem= 1887436800 cpu:      19.7
 (Enter /global/apps/gaussian/03.e01/l502.exe)
 Closed shell SCF:
 Requested convergence on RMS density matrix=1.00D-04 within 180 cycles.
 Requested convergence on MAX density matrix=1.00D-02.
 Requested convergence on             energy=1.00D-02.
 Virtual orbitals will be shifted by   1.000 hartree.
 No special actions if energy rises.
 Using DIIS extrapolation, IDIIS=  1040.
 Two-electron integral symmetry not used.
 Keep R1 integrals in memory in canonical form, NReq=   183593279.
 IEnd=    167855 IEndB=    167855 NGot=1887436800 MDV=1708441452
 LenX=1708441452
 Symmetry not used in FoFDir.
 MinBra= 0 MaxBra= 2 Meth= 1.
 IRaf=       0 NMat=   1 IRICut=       1 DoRegI=T DoRafI=F ISym2E= 0 JSym2E=0.

 Cycle   1  Pass 1  IDiag  1:
 E= -1252.88722396044    
 DIIS: error= 4.62D-02 at cycle   1 NSaved=   1.
 NSaved= 1 IEnMin= 1 EnMin= -1252.88722396044     IErMin= 1 ErrMin= 4.62D-02
 ErrMax= 4.62D-02 EMaxC= 1.00D-01 BMatC= 6.84D-01 BMatP= 6.84D-01
 IDIUse=3 WtCom= 5.38D-01 WtEn= 4.62D-01
 Coeff-Com:  0.100D+01
 Coeff-En:   0.100D+01
 Coeff:      0.100D+01
 Gap=     0.323 Goal=   None    Shift=    1.000
 GapD=    0.323 DampG=1.000 DampE=0.250 DampFc=0.2500 IDamp=-1.
 Damping current iteration by 2.50D-01
 RMSDP=3.37D-03 MaxDP=1.07D-01              OVMax= 0.00D+00

 Cycle   2  Pass 1  IDiag  1:
 E= -1253.05459893408     Delta-E=       -0.167374973637 Rises=F Damp=T
 DIIS: error= 3.59D-02 at cycle   2 NSaved=   2.
 NSaved= 2 IEnMin= 2 EnMin= -1253.05459893408     IErMin= 2 ErrMin= 3.59D-02
 ErrMax= 3.59D-02 EMaxC= 1.00D-01 BMatC= 4.52D-01 BMatP= 6.84D-01
 IDIUse=3 WtCom= 6.41D-01 WtEn= 3.59D-01
 Coeff-Com: -0.411D+01 0.511D+01
 Coeff-En:   0.000D+00 0.100D+01
 Coeff:     -0.263D+01 0.363D+01
 Gap=     0.225 Goal=   None    Shift=    1.000
 RMSDP=3.60D-03 MaxDP=1.03D-01 DE=-1.67D-01 OVMax= 0.00D+00

 Cycle   3  Pass 1  IDiag  1:
 E= -1253.56563860335     Delta-E=       -0.511039669276 Rises=F Damp=F
 DIIS: error= 8.25D-03 at cycle   3 NSaved=   3.
 NSaved= 3 IEnMin= 3 EnMin= -1253.56563860335     IErMin= 3 ErrMin= 8.25D-03
 ErrMax= 8.25D-03 EMaxC= 1.00D-01 BMatC= 1.27D-02 BMatP= 4.52D-01
 IDIUse=3 WtCom= 9.18D-01 WtEn= 8.25D-02
 Coeff-Com:  0.338D+01-0.434D+01 0.196D+01
 Coeff-En:   0.000D+00 0.000D+00 0.100D+01
 Coeff:      0.310D+01-0.398D+01 0.188D+01
 Gap=     0.278 Goal=   None    Shift=    1.000
 RMSDP=6.06D-04 MaxDP=1.52D-02 DE=-5.11D-01 OVMax= 0.00D+00

 Cycle   4  Pass 1  IDiag  1:
 E= -1253.58748814687     Delta-E=       -0.021849543520 Rises=F Damp=F
 DIIS: error= 5.71D-03 at cycle   4 NSaved=   4.
 NSaved= 4 IEnMin= 4 EnMin= -1253.58748814687     IErMin= 4 ErrMin= 5.71D-03
 ErrMax= 5.71D-03 EMaxC= 1.00D-01 BMatC= 4.57D-03 BMatP= 1.27D-02
 IDIUse=3 WtCom= 9.43D-01 WtEn= 5.71D-02
 Coeff-Com:  0.404D+00-0.520D+00-0.549D+00 0.166D+01
 Coeff-En:   0.000D+00 0.000D+00 0.000D+00 0.100D+01
 Coeff:      0.381D+00-0.490D+00-0.518D+00 0.163D+01
 Gap=     0.274 Goal=   None    Shift=    1.000
 RMSDP=4.20D-04 MaxDP=1.41D-02 DE=-2.18D-02 OVMax= 0.00D+00

 Cycle   5  Pass 1  IDiag  1:
 E= -1253.59818735374     Delta-E=       -0.010699206864 Rises=F Damp=F
 DIIS: error= 4.95D-03 at cycle   5 NSaved=   5.
 NSaved= 5 IEnMin= 5 EnMin= -1253.59818735374     IErMin= 5 ErrMin= 4.95D-03
 ErrMax= 4.95D-03 EMaxC= 1.00D-01 BMatC= 2.43D-03 BMatP= 4.57D-03
 IDIUse=3 WtCom= 9.50D-01 WtEn= 4.95D-02
 Coeff-Com: -0.804D+00 0.105D+01-0.383D+00-0.170D+01 0.284D+01
 Coeff-En:   0.000D+00 0.000D+00 0.000D+00 0.000D+00 0.100D+01
 Coeff:     -0.764D+00 0.997D+00-0.364D+00-0.162D+01 0.275D+01
 Gap=     0.280 Goal=   None    Shift=    1.000
 RMSDP=4.05D-04 MaxDP=1.73D-02 DE=-1.07D-02 OVMax= 0.00D+00

 Cycle   6  Pass 1  IDiag  1:
 E= -1253.60640485807     Delta-E=       -0.008217504329 Rises=F Damp=F
 DIIS: error= 4.34D-03 at cycle   6 NSaved=   6.
 NSaved= 6 IEnMin= 6 EnMin= -1253.60640485807     IErMin= 6 ErrMin= 4.34D-03
 ErrMax= 4.34D-03 EMaxC= 1.00D-01 BMatC= 1.60D-03 BMatP= 2.43D-03
 IDIUse=3 WtCom= 9.57D-01 WtEn= 4.34D-02
 Coeff-Com: -0.250D+00 0.307D+00 0.348D+00-0.876D+00-0.137D+01 0.284D+01
 Coeff-En:   0.000D+00 0.000D+00 0.000D+00 0.000D+00 0.000D+00 0.100D+01
 Coeff:     -0.239D+00 0.294D+00 0.333D+00-0.838D+00-0.131D+01 0.276D+01
 Gap=     0.280 Goal=   None    Shift=    1.000
 RMSDP=3.92D-04 MaxDP=1.80D-02 DE=-8.22D-03 OVMax= 0.00D+00

 Cycle   7  Pass 1  IDiag  1:
 E= -1253.61333440964     Delta-E=       -0.006929551578 Rises=F Damp=F
 DIIS: error= 4.12D-03 at cycle   7 NSaved=   7.
 NSaved= 7 IEnMin= 7 EnMin= -1253.61333440964     IErMin= 7 ErrMin= 4.12D-03
 ErrMax= 4.12D-03 EMaxC= 1.00D-01 BMatC= 1.25D-03 BMatP= 1.60D-03
 IDIUse=3 WtCom= 9.59D-01 WtEn= 4.12D-02
 Coeff-Com:  0.276D+00-0.368D+00 0.229D+00 0.377D+00 0.251D+00-0.498D+01
 Coeff-Com:  0.521D+01
 Coeff-En:   0.000D+00 0.000D+00 0.000D+00 0.000D+00 0.000D+00 0.000D+00
 Coeff-En:   0.100D+01
 Coeff:      0.265D+00-0.353D+00 0.219D+00 0.361D+00 0.240D+00-0.477D+01
 Coeff:      0.504D+01
 Gap=     0.283 Goal=   None    Shift=    1.000
 RMSDP=4.94D-04 MaxDP=2.57D-02 DE=-6.93D-03 OVMax= 0.00D+00

 Cycle   8  Pass 1  IDiag  1:
 E= -1253.62096777556     Delta-E=       -0.007633365918 Rises=F Damp=F
 DIIS: error= 3.34D-03 at cycle   8 NSaved=   8.
 NSaved= 8 IEnMin= 8 EnMin= -1253.62096777556     IErMin= 8 ErrMin= 3.34D-03
 ErrMax= 3.34D-03 EMaxC= 1.00D-01 BMatC= 1.03D-03 BMatP= 1.25D-03
 IDIUse=3 WtCom= 9.67D-01 WtEn= 3.34D-02
 Coeff-Com: -0.173D+00 0.231D+00-0.634D-01-0.151D+01 0.471D+01-0.391D+01
 Coeff-Com: -0.284D+01 0.456D+01
 Coeff-En:   0.000D+00 0.000D+00 0.000D+00 0.000D+00 0.000D+00 0.000D+00
 Coeff-En:   0.000D+00 0.100D+01
 Coeff:     -0.167D+00 0.224D+00-0.613D-01-0.146D+01 0.455D+01-0.378D+01
 Coeff:     -0.274D+01 0.444D+01
 Gap=     0.285 Goal=   None    Shift=    1.000
 RMSDP=5.21D-04 MaxDP=2.68D-02 DE=-7.63D-03 OVMax= 0.00D+00

 Cycle   9  Pass 1  IDiag  1:
 E= -1253.62797113989     Delta-E=       -0.007003364327 Rises=F Damp=F
 DIIS: error= 3.11D-03 at cycle   9 NSaved=   9.
 NSaved= 9 IEnMin= 9 EnMin= -1253.62797113989     IErMin= 9 ErrMin= 3.11D-03
 ErrMax= 3.11D-03 EMaxC= 1.00D-01 BMatC= 8.68D-04 BMatP= 1.03D-03
 IDIUse=3 WtCom= 9.69D-01 WtEn= 3.11D-02
 Coeff-Com: -0.156D+00 0.200D+00 0.239D+00-0.181D+01 0.269D+01-0.355D+00
 Coeff-Com:  0.302D+00-0.551D+01 0.540D+01
 Coeff-En:   0.000D+00 0.000D+00 0.000D+00 0.000D+00 0.000D+00 0.000D+00
 Coeff-En:   0.000D+00 0.000D+00 0.100D+01
 Coeff:     -0.151D+00 0.194D+00 0.232D+00-0.175D+01 0.260D+01-0.344D+00
 Coeff:      0.292D+00-0.534D+01 0.527D+01
 Gap=     0.284 Goal=   None    Shift=    1.000
 RMSDP=5.10D-04 MaxDP=2.69D-02 DE=-7.00D-03 OVMax= 0.00D+00

 Cycle  10  Pass 1  IDiag  1:
 E= -1253.63376126017     Delta-E=       -0.005790120285 Rises=F Damp=F
 DIIS: error= 2.98D-03 at cycle  10 NSaved=  10.
 NSaved=10 IEnMin=10 EnMin= -1253.63376126017     IErMin=10 ErrMin= 2.98D-03
 ErrMax= 2.98D-03 EMaxC= 1.00D-01 BMatC= 7.00D-04 BMatP= 8.68D-04
 IDIUse=3 WtCom= 9.70D-01 WtEn= 2.98D-02
 Coeff-Com:  0.409D+00-0.541D+00 0.352D+00 0.621D+00-0.135D+01-0.345D+01
 Coeff-Com:  0.915D+01-0.582D+01-0.333D+01 0.495D+01
 Coeff-En:   0.000D+00 0.000D+00 0.000D+00 0.000D+00 0.000D+00 0.000D+00
 Coeff-En:   0.000D+00 0.000D+00 0.000D+00 0.100D+01
 Coeff:      0.396D+00-0.525D+00 0.341D+00 0.603D+00-0.131D+01-0.335D+01
 Coeff:      0.888D+01-0.564D+01-0.323D+01 0.483D+01
 Gap=     0.286 Goal=   None    Shift=    1.000
 RMSDP=4.19D-04 MaxDP=2.24D-02 DE=-5.79D-03 OVMax= 0.00D+00

 Cycle  11  Pass 1  IDiag  1:
 E= -1253.63775701080     Delta-E=       -0.003995750626 Rises=F Damp=F
 DIIS: error= 2.75D-03 at cycle  11 NSaved=  11.
 NSaved=11 IEnMin=11 EnMin= -1253.63775701080     IErMin=11 ErrMin= 2.75D-03
 ErrMax= 2.75D-03 EMaxC= 1.00D-01 BMatC= 5.26D-04 BMatP= 7.00D-04
 IDIUse=3 WtCom= 9.72D-01 WtEn= 2.75D-02
 Coeff-Com:  0.328D+00-0.427D+00 0.139D+00 0.547D+00-0.135D+00-0.369D+01
 Coeff-Com:  0.520D+01-0.517D+00-0.275D+01-0.139D+01 0.370D+01
 Coeff-En:   0.000D+00 0.000D+00 0.000D+00 0.000D+00 0.000D+00 0.000D+00
 Coeff-En:   0.000D+00 0.000D+00 0.000D+00 0.000D+00 0.100D+01
 Coeff:      0.319D+00-0.416D+00 0.135D+00 0.532D+00-0.132D+00-0.359D+01
 Coeff:      0.506D+01-0.503D+00-0.268D+01-0.136D+01 0.363D+01
 Gap=     0.287 Goal=   None    Shift=    1.000
 RMSDP=3.45D-04 MaxDP=1.82D-02 DE=-4.00D-03 OVMax= 0.00D+00

 Cycle  12  Pass 1  IDiag  1:
 E= -1253.64047275461     Delta-E=       -0.002715743806 Rises=F Damp=F
 DIIS: error= 2.44D-03 at cycle  12 NSaved=  12.
 NSaved=12 IEnMin=12 EnMin= -1253.64047275461     IErMin=12 ErrMin= 2.44D-03
 ErrMax= 2.44D-03 EMaxC= 1.00D-01 BMatC= 3.90D-04 BMatP= 5.26D-04
 IDIUse=3 WtCom= 9.76D-01 WtEn= 2.44D-02
 Coeff-Com: -0.138D+00 0.183D+00 0.828D-03-0.103D+01 0.229D+01-0.452D+00
 Coeff-Com: -0.271D+01 0.147D+01 0.343D+01-0.427D+01-0.274D+01 0.495D+01
 Coeff-En:   0.000D+00 0.000D+00 0.000D+00 0.000D+00 0.000D+00 0.000D+00
 Coeff-En:   0.000D+00 0.000D+00 0.000D+00 0.000D+00 0.000D+00 0.100D+01
 Coeff:     -0.134D+00 0.178D+00 0.808D-03-0.100D+01 0.224D+01-0.441D+00
 Coeff:     -0.264D+01 0.144D+01 0.334D+01-0.416D+01-0.267D+01 0.485D+01
 Gap=     0.287 Goal=   None    Shift=    1.000
 RMSDP=3.05D-04 MaxDP=1.58D-02 DE=-2.72D-03 OVMax= 0.00D+00

 Cycle  13  Pass 1  IDiag  1:
 E= -1253.64241702031     Delta-E=       -0.001944265701 Rises=F Damp=F
 DIIS: error= 2.08D-03 at cycle  13 NSaved=  13.
 NSaved=13 IEnMin=13 EnMin= -1253.64241702031     IErMin=13 ErrMin= 2.08D-03
 ErrMax= 2.08D-03 EMaxC= 1.00D-01 BMatC= 2.93D-04 BMatP= 3.90D-04
 IDIUse=3 WtCom= 9.79D-01 WtEn= 2.08D-02
 Coeff-Com: -0.567D-01 0.729D-01 0.911D-01-0.755D+00 0.140D+01-0.734D+00
 Coeff-Com:  0.462D-01-0.969D+00 0.217D+01-0.593D+00-0.252D+01-0.218D+00
 Coeff-Com:  0.307D+01
 Coeff-En:   0.000D+00 0.000D+00 0.000D+00 0.000D+00 0.000D+00 0.000D+00
 Coeff-En:   0.000D+00 0.000D+00 0.000D+00 0.000D+00 0.000D+00 0.000D+00
 Coeff-En:   0.100D+01
 Coeff:     -0.555D-01 0.714D-01 0.892D-01-0.740D+00 0.137D+01-0.719D+00
 Coeff:      0.452D-01-0.948D+00 0.212D+01-0.580D+00-0.247D+01-0.214D+00
 Coeff:      0.303D+01
 Gap=     0.288 Goal=   None    Shift=    1.000
 RMSDP=2.43D-04 MaxDP=1.23D-02 DE=-1.94D-03 OVMax= 0.00D+00

 Cycle  14  Pass 1  IDiag  1:
 E= -1253.64370967012     Delta-E=       -0.001292649808 Rises=F Damp=F
 DIIS: error= 1.73D-03 at cycle  14 NSaved=  14.
 NSaved=14 IEnMin=14 EnMin= -1253.64370967012     IErMin=14 ErrMin= 1.73D-03
 ErrMax= 1.73D-03 EMaxC= 1.00D-01 BMatC= 2.10D-04 BMatP= 2.93D-04
 IDIUse=3 WtCom= 9.83D-01 WtEn= 1.73D-02
 Coeff-Com:  0.118D+00-0.154D+00 0.664D-01 0.157D+00-0.821D-01-0.141D+01
 Coeff-Com:  0.273D+01-0.145D+01-0.123D+01 0.183D+01 0.717D+00-0.121D+01
 Coeff-Com: -0.459D+01 0.550D+01
 Coeff-En:   0.000D+00 0.000D+00 0.000D+00 0.000D+00 0.000D+00 0.000D+00
 Coeff-En:   0.000D+00 0.000D+00 0.000D+00 0.000D+00 0.000D+00 0.000D+00
 Coeff-En:   0.000D+00 0.100D+01
 Coeff:      0.116D+00-0.151D+00 0.652D-01 0.154D+00-0.807D-01-0.139D+01
 Coeff:      0.268D+01-0.142D+01-0.121D+01 0.180D+01 0.705D+00-0.119D+01
 Coeff:     -0.451D+01 0.542D+01
 Gap=     0.287 Goal=   None    Shift=    1.000
 RMSDP=2.42D-04 MaxDP=1.17D-02 DE=-1.29D-03 OVMax= 0.00D+00

 Cycle  15  Pass 1  IDiag  1:
 E= -1253.64472924517     Delta-E=       -0.001019575056 Rises=F Damp=F
 DIIS: error= 1.39D-03 at cycle  15 NSaved=  15.
 NSaved=15 IEnMin=15 EnMin= -1253.64472924517     IErMin=15 ErrMin= 1.39D-03
 ErrMax= 1.39D-03 EMaxC= 1.00D-01 BMatC= 1.51D-04 BMatP= 2.10D-04
 IDIUse=3 WtCom= 9.86D-01 WtEn= 1.39D-02
 Coeff-Com:  0.531D-01-0.687D-01 0.240D-01 0.569D-02 0.202D+00-0.795D+00
 Coeff-Com:  0.896D+00 0.231D-01-0.579D+00 0.129D-01 0.476D+00 0.822D+00
 Coeff-Com: -0.328D+01 0.438D+00 0.277D+01
 Coeff-En:   0.000D+00 0.000D+00 0.000D+00 0.000D+00 0.000D+00 0.000D+00
 Coeff-En:   0.000D+00 0.000D+00 0.000D+00 0.000D+00 0.000D+00 0.000D+00
 Coeff-En:   0.000D+00 0.000D+00 0.100D+01
 Coeff:      0.524D-01-0.677D-01 0.237D-01 0.562D-02 0.199D+00-0.784D+00
 Coeff:      0.884D+00 0.227D-01-0.571D+00 0.127D-01 0.469D+00 0.810D+00
 Coeff:     -0.323D+01 0.432D+00 0.274D+01
 Gap=     0.287 Goal=   None    Shift=    1.000
 RMSDP=2.00D-04 MaxDP=9.11D-03 DE=-1.02D-03 OVMax= 0.00D+00

 Cycle  16  Pass 1  IDiag  1:
 E= -1253.64542775156     Delta-E=       -0.000698506385 Rises=F Damp=F
 DIIS: error= 1.23D-03 at cycle  16 NSaved=  16.
 NSaved=16 IEnMin=16 EnMin= -1253.64542775156     IErMin=16 ErrMin= 1.23D-03
 ErrMax= 1.23D-03 EMaxC= 1.00D-01 BMatC= 1.06D-04 BMatP= 1.51D-04
 IDIUse=3 WtCom= 9.88D-01 WtEn= 1.23D-02
 Coeff-Com: -0.292D-01 0.384D-01 0.176D-01-0.256D+00 0.458D+00 0.840D-01
 Coeff-Com: -0.805D+00 0.354D+00 0.868D+00-0.814D+00-0.705D+00 0.686D+00
 Coeff-Com:  0.107D+01-0.200D+00-0.497D+01 0.520D+01
 Coeff-En:   0.000D+00 0.000D+00 0.000D+00 0.000D+00 0.000D+00 0.000D+00
 Coeff-En:   0.000D+00 0.000D+00 0.000D+00 0.000D+00 0.000D+00 0.000D+00
 Coeff-En:   0.000D+00 0.000D+00 0.000D+00 0.100D+01
 Coeff:     -0.289D-01 0.379D-01 0.174D-01-0.253D+00 0.452D+00 0.830D-01
 Coeff:     -0.795D+00 0.349D+00 0.858D+00-0.804D+00-0.697D+00 0.677D+00
 Coeff:      0.105D+01-0.197D+00-0.491D+01 0.515D+01
 Gap=     0.287 Goal=   None    Shift=    1.000
 RMSDP=1.86D-04 MaxDP=8.84D-03 DE=-6.99D-04 OVMax= 0.00D+00

 Cycle  17  Pass 1  IDiag  1:
 E= -1253.64596516797     Delta-E=       -0.000537416414 Rises=F Damp=F
 DIIS: error= 1.17D-03 at cycle  17 NSaved=  17.
 NSaved=17 IEnMin=17 EnMin= -1253.64596516797     IErMin=17 ErrMin= 1.17D-03
 ErrMax= 1.17D-03 EMaxC= 1.00D-01 BMatC= 7.85D-05 BMatP= 1.06D-04
 IDIUse=3 WtCom= 9.88D-01 WtEn= 1.17D-02
 Coeff-Com:  0.146D-01-0.198D-01 0.494D-01-0.149D+00 0.188D+00-0.138D+00
 Coeff-Com:  0.239D+00-0.372D+00 0.236D+00 0.190D+00-0.304D+00-0.581D+00
 Coeff-Com:  0.496D+00 0.194D+01-0.297D+01-0.138D+01 0.356D+01
 Coeff-En:   0.000D+00 0.000D+00 0.000D+00 0.000D+00 0.000D+00 0.000D+00
 Coeff-En:   0.000D+00 0.000D+00 0.000D+00 0.000D+00 0.000D+00 0.000D+00
 Coeff-En:   0.000D+00 0.000D+00 0.000D+00 0.000D+00 0.100D+01
 Coeff:      0.144D-01-0.196D-01 0.488D-01-0.148D+00 0.185D+00-0.136D+00
 Coeff:      0.236D+00-0.368D+00 0.234D+00 0.188D+00-0.300D+00-0.575D+00
 Coeff:      0.491D+00 0.192D+01-0.293D+01-0.136D+01 0.353D+01
 Gap=     0.287 Goal=   None    Shift=    1.000
 RMSDP=1.51D-04 MaxDP=7.31D-03 DE=-5.37D-04 OVMax= 0.00D+00

 Cycle  18  Pass 1  IDiag  1:
 E= -1253.64635556592     Delta-E=       -0.000390397952 Rises=F Damp=F
 DIIS: error= 1.13D-03 at cycle  18 NSaved=  18.
 NSaved=18 IEnMin=18 EnMin= -1253.64635556592     IErMin=18 ErrMin= 1.13D-03
 ErrMax= 1.13D-03 EMaxC= 1.00D-01 BMatC= 5.90D-05 BMatP= 7.85D-05
 IDIUse=3 WtCom= 9.89D-01 WtEn= 1.13D-02
 Coeff-Com:  0.505D-01-0.653D-01-0.242D-02 0.160D+00-0.113D+00-0.573D+00
 Coeff-Com:  0.101D+01-0.295D+00-0.713D+00 0.565D+00 0.670D+00-0.213D+00
 Coeff-Com: -0.252D+01 0.136D+01 0.395D+01-0.243D+01-0.659D+01 0.674D+01
 Coeff-En:   0.000D+00 0.000D+00 0.000D+00 0.000D+00 0.000D+00 0.000D+00
 Coeff-En:   0.000D+00 0.000D+00 0.000D+00 0.000D+00 0.000D+00 0.000D+00
 Coeff-En:   0.000D+00 0.000D+00 0.000D+00 0.000D+00 0.000D+00 0.100D+01
 Coeff:      0.499D-01-0.646D-01-0.239D-02 0.158D+00-0.112D+00-0.567D+00
 Coeff:      0.100D+01-0.291D+00-0.705D+00 0.558D+00 0.662D+00-0.211D+00
 Coeff:     -0.249D+01 0.135D+01 0.391D+01-0.240D+01-0.651D+01 0.668D+01
 Gap=     0.286 Goal=   None    Shift=    1.000
 RMSDP=1.50D-04 MaxDP=7.32D-03 DE=-3.90D-04 OVMax= 0.00D+00

 Cycle  19  Pass 1  IDiag  1:
 E= -1253.64671551243     Delta-E=       -0.000359946504 Rises=F Damp=F
 DIIS: error= 1.09D-03 at cycle  19 NSaved=  19.
 NSaved=19 IEnMin=19 EnMin= -1253.64671551243     IErMin=19 ErrMin= 1.09D-03
 ErrMax= 1.09D-03 EMaxC= 1.00D-01 BMatC= 4.66D-05 BMatP= 5.90D-05
 IDIUse=3 WtCom= 9.89D-01 WtEn= 1.09D-02
 Coeff-Com:  0.471D-02-0.557D-02-0.149D-01 0.397D-01 0.449D-01-0.232D+00
 Coeff-Com:  0.212D+00 0.214D-01-0.125D-01-0.207D+00 0.161D+00 0.498D+00
 Coeff-Com: -0.128D+01 0.361D-01 0.163D+01 0.122D+01-0.515D+01 0.146D+01
 Coeff-Com:  0.258D+01
 Coeff-En:   0.000D+00 0.000D+00 0.000D+00 0.000D+00 0.000D+00 0.000D+00
 Coeff-En:   0.000D+00 0.000D+00 0.000D+00 0.000D+00 0.000D+00 0.000D+00
 Coeff-En:   0.000D+00 0.000D+00 0.000D+00 0.000D+00 0.000D+00 0.000D+00
 Coeff-En:   0.100D+01
 Coeff:      0.465D-02-0.551D-02-0.148D-01 0.393D-01 0.444D-01-0.230D+00
 Coeff:      0.210D+00 0.211D-01-0.124D-01-0.205D+00 0.159D+00 0.493D+00
 Coeff:     -0.127D+01 0.357D-01 0.161D+01 0.120D+01-0.510D+01 0.145D+01
 Coeff:      0.256D+01
 Gap=     0.287 Goal=   None    Shift=    1.000
 RMSDP=1.24D-04 MaxDP=5.88D-03 DE=-3.60D-04 OVMax= 0.00D+00

 Cycle  20  Pass 1  IDiag  1:
 Restarting incremental Fock formation.
 E= -1253.64700215778     Delta-E=       -0.000286645351 Rises=F Damp=F
 DIIS: error= 1.06D-03 at cycle  20 NSaved=  20.
 NSaved=20 IEnMin=20 EnMin= -1253.64700215778     IErMin=20 ErrMin= 1.06D-03
 ErrMax= 1.06D-03 EMaxC= 1.00D-01 BMatC= 3.84D-05 BMatP= 4.66D-05
 IDIUse=3 WtCom= 9.89D-01 WtEn= 1.06D-02
 Matrix for removal  1 Erem= -1252.88722396044     Crem= 0.000D+00
 Coeff-Com:  0.154D-01-0.203D-01 0.168D-01-0.671D-02-0.108D-02-0.130D+00
 Coeff-Com:  0.388D+00-0.401D+00-0.675D-01 0.356D+00 0.282D-01-0.248D+00
 Coeff-Com: -0.428D+00 0.882D+00 0.316D+00-0.201D+01 0.199D+01 0.229D+01
 Coeff-Com: -0.948D+01 0.750D+01
 Coeff-En:   0.000D+00 0.000D+00 0.000D+00 0.000D+00 0.000D+00 0.000D+00
 Coeff-En:   0.000D+00 0.000D+00 0.000D+00 0.000D+00 0.000D+00 0.000D+00
 Coeff-En:   0.000D+00 0.000D+00 0.000D+00 0.000D+00 0.000D+00 0.000D+00
 Coeff-En:   0.000D+00 0.100D+01
 Coeff:      0.152D-01-0.201D-01 0.167D-01-0.664D-02-0.107D-02-0.128D+00
 Coeff:      0.384D+00-0.397D+00-0.668D-01 0.352D+00 0.279D-01-0.246D+00
 Coeff:     -0.424D+00 0.873D+00 0.312D+00-0.198D+01 0.197D+01 0.227D+01
 Coeff:     -0.937D+01 0.743D+01
 Gap=     0.286 Goal=   None    Shift=    1.000
 RMSDP=1.32D-04 MaxDP=7.52D-03 DE=-2.87D-04 OVMax= 0.00D+00

 Cycle  21  Pass 1  IDiag  1:
 E= -1253.64729718948     Delta-E=       -0.000295031699 Rises=F Damp=F
 DIIS: error= 1.05D-03 at cycle  21 NSaved=  20.
 NSaved=20 IEnMin=20 EnMin= -1253.64729718948     IErMin=20 ErrMin= 1.05D-03
 ErrMax= 1.05D-03 EMaxC= 1.00D-01 BMatC= 3.41D-05 BMatP= 3.84D-05
 IDIUse=3 WtCom= 9.90D-01 WtEn= 1.05D-02
 Matrix for removal  1 Erem= -1253.05459893408     Crem= 0.000D+00
 Coeff-Com: -0.406D-03 0.971D-02-0.381D-01 0.645D-01-0.114D+00 0.271D+00
 Coeff-Com: -0.313D+00-0.229D-01 0.279D+00-0.385D-02-0.198D+00-0.423D+00
 Coeff-Com:  0.870D+00 0.379D+00-0.208D+01 0.167D+01 0.276D+01-0.872D+01
 Coeff-Com:  0.579D+01 0.823D+00
 Coeff-En:   0.000D+00 0.000D+00 0.000D+00 0.000D+00 0.000D+00 0.000D+00
 Coeff-En:   0.000D+00 0.000D+00 0.000D+00 0.000D+00 0.000D+00 0.000D+00
 Coeff-En:   0.000D+00 0.000D+00 0.000D+00 0.000D+00 0.000D+00 0.000D+00
 Coeff-En:   0.000D+00 0.100D+01
 Coeff:     -0.402D-03 0.960D-02-0.377D-01 0.638D-01-0.113D+00 0.268D+00
 Coeff:     -0.309D+00-0.226D-01 0.276D+00-0.381D-02-0.196D+00-0.419D+00
 Coeff:      0.861D+00 0.375D+00-0.206D+01 0.165D+01 0.273D+01-0.863D+01
 Coeff:      0.573D+01 0.825D+00
 Gap=     0.286 Goal=   None    Shift=    1.000
 RMSDP=1.00D-04 MaxDP=5.80D-03 DE=-2.95D-04 OVMax= 0.00D+00

 Cycle  22  Pass 1  IDiag  1:
 E= -1253.64752241285     Delta-E=       -0.000225223372 Rises=F Damp=F
 DIIS: error= 1.03D-03 at cycle  22 NSaved=  20.
 NSaved=20 IEnMin=20 EnMin= -1253.64752241285     IErMin=20 ErrMin= 1.03D-03
 ErrMax= 1.03D-03 EMaxC= 1.00D-01 BMatC= 3.06D-05 BMatP= 3.41D-05
 IDIUse=3 WtCom= 9.90D-01 WtEn= 1.03D-02
 Large coefficients: NSaved= 20 BigCof=   11.09 CofMax=   10.00 Det=-9.23D-09
 Inversion failed.  Reducing to 19 matrices.
 Large coefficients: NSaved= 19 BigCof=   10.93 CofMax=   10.00 Det=-9.83D-09
 Inversion failed.  Reducing to 18 matrices.
 Large coefficients: NSaved= 18 BigCof=   10.68 CofMax=   10.00 Det=-9.83D-09
 Inversion failed.  Reducing to 17 matrices.
 Large coefficients: NSaved= 17 BigCof=   10.64 CofMax=   10.00 Det=-9.97D-09
 Inversion failed.  Reducing to 16 matrices.
 Large coefficients: NSaved= 16 BigCof=   10.82 CofMax=   10.00 Det=-1.03D-08
 Inversion failed.  Reducing to 15 matrices.
 Large coefficients: NSaved= 15 BigCof=   10.80 CofMax=   10.00 Det=-8.83D-09
 Inversion failed.  Reducing to 14 matrices.
 Large coefficients: NSaved= 14 BigCof=   10.75 CofMax=   10.00 Det=-1.18D-08
 Inversion failed.  Reducing to 13 matrices.
 Large coefficients: NSaved= 13 BigCof=   10.72 CofMax=   10.00 Det=-1.24D-08
 Inversion failed.  Reducing to 12 matrices.
 Large coefficients: NSaved= 12 BigCof=   10.70 CofMax=   10.00 Det=-1.29D-08
 Inversion failed.  Reducing to 11 matrices.
 Large coefficients: NSaved= 11 BigCof=   10.68 CofMax=   10.00 Det=-9.81D-09
 Inversion failed.  Reducing to 10 matrices.
 Large coefficients: NSaved= 10 BigCof=   10.78 CofMax=   10.00 Det=-1.01D-08
 Inversion failed.  Reducing to  9 matrices.
 Large coefficients: NSaved=  9 BigCof=   10.77 CofMax=   10.00 Det=-1.01D-08
 Inversion failed.  Reducing to  8 matrices.
 Coeff-Com:  0.366D-01-0.655D-01-0.113D+00-0.200D+00 0.121D+01 0.215D+01
 Coeff-Com: -0.987D+01 0.785D+01
 Coeff-En:   0.000D+00 0.000D+00 0.000D+00 0.000D+00 0.000D+00 0.000D+00
 Coeff-En:   0.000D+00 0.100D+01
 Coeff:      0.362D-01-0.648D-01-0.112D+00-0.198D+00 0.120D+01 0.213D+01
 Coeff:     -0.977D+01 0.778D+01
 Gap=     0.286 Goal=   None    Shift=    1.000
 RMSDP=9.80D-05 MaxDP=6.20D-03 DE=-2.25D-04 OVMax= 0.00D+00

 SCF Done:  E(RHF) =  -1253.64752241     A.U. after   22 cycles
             Convg  =    0.9798D-04             -V/T =  2.0764
             S**2   =   0.0000
 KE= 1.164642994527D+03 PE=-9.444740307687D+03 EE= 3.747886192771D+03
 Leave Link  502 at Wed Nov 20 14:11:38 2013, MaxMem= 1887436800 cpu:      59.2
 (Enter /global/apps/gaussian/03.e01/l601.exe)
 Copying SCF densities to generalized density rwf, ISCF=0 IROHF=0.

 **********************************************************************

            Population analysis using the SCF density.

 **********************************************************************

 Alpha  occ. eigenvalues --  -15.50442 -15.50081 -15.34698 -15.31452 -11.18990
 Alpha  occ. eigenvalues --  -11.12973 -11.12001 -11.11928 -11.11082 -11.10549
 Alpha  occ. eigenvalues --  -11.10262 -11.10160 -11.08662 -11.08378 -11.07876
 Alpha  occ. eigenvalues --  -11.07689 -11.07515 -11.07381 -11.07300 -11.06447
 Alpha  occ. eigenvalues --  -11.05524 -11.05505 -11.05125 -11.04504 -11.04451
 Alpha  occ. eigenvalues --  -11.04239 -11.01035 -11.01028  -3.45291  -2.18271
 Alpha  occ. eigenvalues --   -2.17592  -2.17202  -1.38803  -1.26373  -1.21287
 Alpha  occ. eigenvalues --   -1.17801  -1.12352  -1.08526  -1.04512  -1.03179
 Alpha  occ. eigenvalues --   -1.01416  -0.99877  -0.97920  -0.97222  -0.94744
 Alpha  occ. eigenvalues --   -0.94377  -0.91488  -0.91360  -0.90294  -0.89954
 Alpha  occ. eigenvalues --   -0.89440  -0.87755  -0.87590  -0.85168  -0.82435
 Alpha  occ. eigenvalues --   -0.79604  -0.77551  -0.75921  -0.75012  -0.73561
 Alpha  occ. eigenvalues --   -0.70860  -0.67918  -0.67593  -0.67469  -0.64579
 Alpha  occ. eigenvalues --   -0.64041  -0.63850  -0.61927  -0.61460  -0.60341
 Alpha  occ. eigenvalues --   -0.59677  -0.58383  -0.58032  -0.57420  -0.57243
 Alpha  occ. eigenvalues --   -0.56358  -0.56029  -0.55405  -0.54917  -0.54434
 Alpha  occ. eigenvalues --   -0.54377  -0.54166  -0.54092  -0.53891  -0.52752
 Alpha  occ. eigenvalues --   -0.51436  -0.51333  -0.50977  -0.50512  -0.50061
 Alpha  occ. eigenvalues --   -0.49766  -0.48902  -0.48618  -0.48055  -0.47263
 Alpha  occ. eigenvalues --   -0.46818  -0.45733  -0.45279  -0.44625  -0.43863
 Alpha  occ. eigenvalues --   -0.43483  -0.42070  -0.39861  -0.39748  -0.34990
 Alpha  occ. eigenvalues --   -0.33964  -0.33164  -0.32597  -0.31589  -0.31100
 Alpha  occ. eigenvalues --   -0.30714  -0.29871  -0.29588  -0.26547  -0.25994
 Alpha  occ. eigenvalues --   -0.25780  -0.22399
 Alpha virt. eigenvalues --    0.06193   0.08525   0.10667   0.21060   0.22610
 Alpha virt. eigenvalues --    0.23009   0.24545   0.25786   0.26559   0.27492
 Alpha virt. eigenvalues --    0.29914   0.31074   0.31842   0.42863   0.46667
 Alpha virt. eigenvalues --    0.54312   0.54961   0.57503   0.57837   0.58238
 Alpha virt. eigenvalues --    0.59199   0.59795   0.60847   0.61173   0.62235
 Alpha virt. eigenvalues --    0.64150   0.64513   0.65330   0.66319   0.66924
 Alpha virt. eigenvalues --    0.67481   0.67656   0.67786   0.69041   0.69421
 Alpha virt. eigenvalues --    0.69844   0.70046   0.70114   0.70715   0.70879
 Alpha virt. eigenvalues --    0.71220   0.71626   0.72192   0.72364   0.72675
 Alpha virt. eigenvalues --    0.72972   0.73105   0.73253   0.73469   0.74054
 Alpha virt. eigenvalues --    0.74702   0.74886   0.74964   0.75754   0.76337
 Alpha virt. eigenvalues --    0.77328   0.78341   0.78731   0.79969   0.81797
 Alpha virt. eigenvalues --    0.81995   0.84332   0.87105   0.88308   0.89455
 Alpha virt. eigenvalues --    0.90051   0.91025   0.92339   0.93375   0.95287
 Alpha virt. eigenvalues --    0.97348   1.04613   1.05179   1.08289   1.11260
 Alpha virt. eigenvalues --    1.14620
          Condensed to atoms (all electrons):
 Mulliken atomic charges:
              1
     1  H    0.136885
     2  C    0.030980
     3  H    0.133755
     4  Ru   0.291832
     5  Cl  -0.547658
     6  Cl  -0.587096
     7  C    0.192962
     8  N   -0.232090
     9  C    0.025872
    10  H    0.110755
    11  C    0.019632
    12  H    0.107246
    13  N   -0.239793
    14  C    0.070005
    15  C    0.033865
    16  C   -0.102222
    17  H    0.075930
    18  C    0.139227
    19  C   -0.107719
    20  H    0.072273
    21  C    0.027883
    22  C   -0.191365
    23  H    0.072416
    24  H    0.082420
    25  H    0.073509
    26  N   -0.308699
    27  C   -0.069522
    28  H    0.067061
    29  H    0.073478
    30  H    0.060904
    31  C   -0.069135
    32  H    0.067090
    33  H    0.059295
    34  H    0.073719
    35  C   -0.154414
    36  H    0.067789
    37  H    0.083735
    38  H    0.065245
    39  C    0.064127
    40  C    0.041608
    41  C   -0.091195
    42  H    0.074679
    43  C    0.151409
    44  C   -0.087122
    45  H    0.072169
    46  C    0.051133
    47  C   -0.185132
    48  H    0.057363
    49  H    0.075457
    50  H    0.080387
    51  N   -0.306014
    52  C   -0.068577
    53  H    0.061178
    54  H    0.059559
    55  H    0.069760
    56  C   -0.069997
    57  H    0.063744
    58  H    0.091335
    59  H    0.052122
    60  C   -0.190506
    61  H    0.078718
    62  H    0.090130
    63  H    0.057613
 Sum of Mulliken charges=   0.00000
 Atomic charges with hydrogens summed into heavy atoms:
              1
     1  H    0.000000
     2  C    0.301620
     3  H    0.000000
     4  Ru   0.291832
     5  Cl  -0.547658
     6  Cl  -0.587096
     7  C    0.192962
     8  N   -0.232090
     9  C    0.136627
    10  H    0.000000
    11  C    0.126878
    12  H    0.000000
    13  N   -0.239793
    14  C    0.070005
    15  C    0.033865
    16  C   -0.026292
    17  H    0.000000
    18  C    0.139227
    19  C   -0.035447
    20  H    0.000000
    21  C    0.027883
    22  C    0.036980
    23  H    0.000000
    24  H    0.000000
    25  H    0.000000
    26  N   -0.308699
    27  C    0.131921
    28  H    0.000000
    29  H    0.000000
    30  H    0.000000
    31  C    0.130970
    32  H    0.000000
    33  H    0.000000
    34  H    0.000000
    35  C    0.062355
    36  H    0.000000
    37  H    0.000000
    38  H    0.000000
    39  C    0.064127
    40  C    0.041608
    41  C   -0.016515
    42  H    0.000000
    43  C    0.151409
    44  C   -0.014952
    45  H    0.000000
    46  C    0.051133
    47  C    0.028076
    48  H    0.000000
    49  H    0.000000
    50  H    0.000000
    51  N   -0.306014
    52  C    0.121920
    53  H    0.000000
    54  H    0.000000
    55  H    0.000000
    56  C    0.137204
    57  H    0.000000
    58  H    0.000000
    59  H    0.000000
    60  C    0.035954
    61  H    0.000000
    62  H    0.000000
    63  H    0.000000
 Sum of Mulliken charges=   0.00000
 Electronic spatial extent (au):  <R**2>= 33514.5506
 Charge=     0.0000 electrons
 Dipole moment (field-independent basis, Debye):
    X=   -11.0635    Y=    -3.4662    Z=     8.5943  Tot=    14.4318
 Quadrupole moment (field-independent basis, Debye-Ang):
   XX=  -299.3197   YY=  -166.3851   ZZ=  -255.0244
   XY=     1.8783   XZ=    69.4777   YZ=    22.8425
 Traceless Quadrupole moment (field-independent basis, Debye-Ang):
   XX=   -59.0766   YY=    73.8580   ZZ=   -14.7813
   XY=     1.8783   XZ=    69.4777   YZ=    22.8425
 Octapole moment (field-independent basis, Debye-Ang**2):
  XXX= -3303.0087  YYY=   -67.1528  ZZZ=  1497.6729  XYY=  -714.4840
  XXY=    80.0185  XXZ=   859.4391  XZZ= -1204.6952  YZZ=  -109.0384
  YYZ=   303.6601  XYZ=    60.1069
 Hexadecapole moment (field-independent basis, Debye-Ang**3):
 XXXX=-37508.6887 YYYY= -8690.3605 ZZZZ= -9669.9373 XXXY= -2625.2367
 XXXZ=  7400.5330 YYYX= -3610.8005 YYYZ=  -614.3656 ZZZX=  6084.7039
 ZZZY=  -376.7829 XXYY= -6010.1804 XXZZ= -8773.6916 YYZZ= -2573.4084
 XXYZ=   -98.4633 YYXZ=  1094.6915 ZZXY= -1610.1151
 N-N= 3.278563597976D+03 E-N=-9.444747269763D+03  KE= 1.164642994527D+03
 No NMR shielding tensors so no spin-rotation constants.
 Leave Link  601 at Wed Nov 20 14:11:43 2013, MaxMem= 1887436800 cpu:       1.3
 (Enter /global/apps/gaussian/03.e01/l9999.exe)
 1\1\GINC-C18-9\SP\RHF\LANL2MB\C24H32Cl2N4Ru1\MARCOF\20-Nov-2013\0\\#P 
 HF/LANL2MB vshift=1000 SP # nosym SCFCyc=180 SCF=(novaracc) 5d 7f\\Com
 pound Job Adn2mcompl_1_mview Step 0\\0,1\H,0,5.1439,-3.3927,-2.721\C,0
 ,4.6754,-2.683,-3.2285\H,0,3.9972,-3.0151,-3.8683\Ru,0,5.0974,-0.5822,
 -2.9659\Cl,0,7.4944,-0.3133,-2.3551\Cl,0,4.9,0.4771,-5.2066\C,0,3.7357
 ,0.2889,-1.4802\N,0,4.0006,1.3875,-0.7416\C,0,2.9577,1.6808,0.0536\H,0
 ,2.8832,2.4562,0.7175\C,0,1.9946,0.722,-0.1861\H,0,1.0802,0.6642,0.267
 9\N,0,2.4976,-0.1081,-1.116\C,0,1.8551,-1.1984,-1.6208\C,0,0.9846,-1.0
 63,-2.7393\C,0,0.2779,-2.1983,-3.1938\H,0,-0.375,-2.1048,-3.9781\C,0,0
 .4393,-3.4616,-2.5927\C,0,1.329,-3.5824,-1.5052\H,0,1.4558,-4.5027,-1.
 0756\C,0,2.038,-2.4678,-1.0042\C,0,2.9539,-2.64,0.1568\H,0,2.6158,-2.0
 162,0.9864\H,0,3.9684,-2.3443,-0.1183\H,0,2.9923,-3.6742,0.5071\N,0,-0
 .2553,-4.5536,-3.0639\C,0,-0.1556,-4.9417,-4.4499\H,0,0.0204,-6.0159,-
 4.5326\H,0,0.6672,-4.4363,-4.9635\H,0,-1.0836,-4.6983,-4.9716\C,0,-1.0
 976,-5.331,-2.1888\H,0,-2.086,-5.4577,-2.6349\H,0,-0.6551,-6.3163,-2.0
 287\H,0,-1.238,-4.8587,-1.2125\C,0,0.7457,0.2206,-3.4548\H,0,1.5119,0.
 9929,-3.1514\H,0,0.9884,0.0367,-4.5441\H,0,-0.3697,0.4956,-3.22\C,0,5.
 182,2.0637,-0.7867\C,0,5.3843,3.0864,-1.7528\C,0,6.6343,3.7427,-1.8\H,
 0,6.7993,4.4678,-2.5024\C,0,7.6685,3.4283,-0.8934\C,0,7.4398,2.4245,0.
 0695\H,0,8.1839,2.2015,0.7371\C,0,6.2138,1.728,0.1336\C,0,6.0275,0.662
 ,1.1553\H,0,5.2276,0.9536,1.8386\H,0,6.93,0.483,1.7459\H,0,5.758,-0.27
 71,0.6674\N,0,8.8742,4.0956,-0.9364\C,0,8.9237,5.5361,-0.8627\H,0,9.61
 84,5.8455,-0.0796\H,0,9.262,5.9477,-1.8161\H,0,7.9515,5.9779,-0.6271\C
 ,0,10.1137,3.3668,-1.0471\H,0,10.7027,3.7505,-1.8826\H,0,9.9588,2.2977
 ,-1.2205\H,0,10.6931,3.4791,-0.1282\C,0,4.3047,3.4897,-2.6946\H,0,4.63
 6,4.2471,-3.4089\H,0,3.9521,2.6283,-3.2632\H,0,3.4709,3.9039,-2.1251\\
 Version=EM64L-G03RevE.01\HF=-1253.6475224\RMSD=9.798e-05\Thermal=0.\Di
 pole=-4.3526973,-1.3637134,3.3812543\PG=C01 [X(C24H32Cl2N4Ru1)]\\@


 HE THAT WALD REACHE THE SWEITE ROSE
 SULD NOW AND THEN BE SCRATCHED WT THE SCHARPE BREERES.
 -- PROVERBS AND REASONS OF THE YEAR 1585
           AS REPRINTED IN PAISLEY MAGAZINE 1828.
 Job cpu time:  0 days  0 hours  2 minutes 17.8 seconds.
 File lengths (MBytes):  RWF=     28 Int=      0 D2E=      0 Chk=     11 Scr=      1
 Normal termination of Gaussian 03 at Wed Nov 20 14:11:48 2013.
 Initial command:
 /global/apps/gaussian/03.e01/l1.exe /global/work/marcof/1897177.stallo-adm.uit.no/Adn2mcompl_1_mview/Gau-31478.inp -scrdir=/global/work/marcof/1897177.stallo-adm.uit.no/Adn2mcompl_1_mview/
 Entering Link 1 = /global/apps/gaussian/03.e01/l1.exe PID=     31594.
  
 Copyright (c) 1988,1990,1992,1993,1995,1998,2003,2004,2007, Gaussian, Inc.
                  All Rights Reserved.
  
 This is the Gaussian(R) 03 program.  It is based on the
 the Gaussian(R) 98 system (copyright 1998, Gaussian, Inc.),
 the Gaussian(R) 94 system (copyright 1995, Gaussian, Inc.),
 the Gaussian 92(TM) system (copyright 1992, Gaussian, Inc.),
 the Gaussian 90(TM) system (copyright 1990, Gaussian, Inc.),
 the Gaussian 88(TM) system (copyright 1988, Gaussian, Inc.),
 the Gaussian 86(TM) system (copyright 1986, Carnegie Mellon
 University), and the Gaussian 82(TM) system (copyright 1983,
 Carnegie Mellon University). Gaussian is a federally registered
 trademark of Gaussian, Inc.
  
 This software contains proprietary and confidential information,
 including trade secrets, belonging to Gaussian, Inc.
  
 This software is provided under written license and may be
 used, copied, transmitted, or stored only in accord with that
 written license.
  
 The following legend is applicable only to US Government
 contracts under FAR:
  
                    RESTRICTED RIGHTS LEGEND
  
 Use, reproduction and disclosure by the US Government is
 subject to restrictions as set forth in subparagraphs (a)
 and (c) of the Commercial Computer Software - Restricted
 Rights clause in FAR 52.227-19.
  
 Gaussian, Inc.
 340 Quinnipiac St., Bldg. 40, Wallingford CT 06492
  
  
 ---------------------------------------------------------------
 Warning -- This program may not be used in any manner that
 competes with the business of Gaussian, Inc. or will provide
 assistance to any competitor of Gaussian, Inc.  The licensee
 of this program is prohibited from giving any competitor of
 Gaussian, Inc. access to this program.  By using this program,
 the user acknowledges that Gaussian, Inc. is engaged in the
 business of creating and licensing software in the field of
 computational chemistry and represents and warrants to the
 licensee that it is not a competitor of Gaussian, Inc. and that
 it will not use this program in any manner prohibited above.
 ---------------------------------------------------------------
  

 Cite this work as:
 Gaussian 03, Revision E.01,
 M. J. Frisch, G. W. Trucks, H. B. Schlegel, G. E. Scuseria, 
 M. A. Robb, J. R. Cheeseman, J. A. Montgomery, Jr., T. Vreven, 
 K. N. Kudin, J. C. Burant, J. M. Millam, S. S. Iyengar, J. Tomasi, 
 V. Barone, B. Mennucci, M. Cossi, G. Scalmani, N. Rega, 
 G. A. Petersson, H. Nakatsuji, M. Hada, M. Ehara, K. Toyota, 
 R. Fukuda, J. Hasegawa, M. Ishida, T. Nakajima, Y. Honda, O. Kitao, 
 H. Nakai, M. Klene, X. Li, J. E. Knox, H. P. Hratchian, J. B. Cross, 
 V. Bakken, C. Adamo, J. Jaramillo, R. Gomperts, R. E. Stratmann, 
 O. Yazyev, A. J. Austin, R. Cammi, C. Pomelli, J. W. Ochterski, 
 P. Y. Ayala, K. Morokuma, G. A. Voth, P. Salvador, J. J. Dannenberg, 
 V. G. Zakrzewski, S. Dapprich, A. D. Daniels, M. C. Strain, 
 O. Farkas, D. K. Malick, A. D. Rabuck, K. Raghavachari, 
 J. B. Foresman, J. V. Ortiz, Q. Cui, A. G. Baboul, S. Clifford, 
 J. Cioslowski, B. B. Stefanov, G. Liu, A. Liashenko, P. Piskorz, 
 I. Komaromi, R. L. Martin, D. J. Fox, T. Keith, M. A. Al-Laham, 
 C. Y. Peng, A. Nanayakkara, M. Challacombe, P. M. W. Gill, 
 B. Johnson, W. Chen, M. W. Wong, C. Gonzalez, and J. A. Pople, 
 Gaussian, Inc., Wallingford CT, 2004.
 
 ******************************************
 Gaussian 03:  EM64L-G03RevE.01 11-Sep-2007
                20-Nov-2013 
 ******************************************
 %NProcShared=1
 Will use up to    1 processors via shared memory.
 %LindaWorkers=c18-9
 SetLPE:  input flags="-v -nodelist "c18-9 " "
 SetLPE:    new flags="-v -nodelist "c18-9 "  -nodelist 'c18-9.local'"
 Will use up to    1 processors via Linda.
 %NPROCSHARED=8
 Will use up to    8 processors via shared memory.
 %CHK=Adn2mcompl_1_mview
 %MEM=14400MB
 ----------------------------------------------------------------------
 #P OLYP/LANL2MB vshift=800 # geom=check guess=read # nosym SCFCyc=280 
 SCF=(novaracc) sp 5d 7f
 ----------------------------------------------------------------------
 1/29=2,38=1/1;
 2/15=1,40=1/2;
 3/5=6,6=2,8=11,11=2,16=1,25=1,30=1,74=2002/1,2,3;
 4/5=1/1;
 5/5=2,7=280,10=800,32=1,38=6/2;
 6/7=2,8=2,9=2,10=2,28=1/1;
 99/5=1,9=1/99;
 Leave Link    1 at Wed Nov 20 14:11:49 2013, MaxMem= 1887436800 cpu:       1.2
 (Enter /global/apps/gaussian/03.e01/l101.exe)
 --------------------------------------
 Compound Job Adn2mcompl_1_mview Step 1
 --------------------------------------
 Z-Matrix taken from the checkpoint file:
 Adn2mcompl_1_mview.chk
 Charge =  0 Multiplicity = 1
 H,0,5.1439,-3.3927,-2.721
 C,0,4.6754,-2.683,-3.2285
 H,0,3.9972,-3.0151,-3.8683
 Ru,0,5.0974,-0.5822,-2.9659
 Cl,0,7.4944,-0.3133,-2.3551
 Cl,0,4.9,0.4771,-5.2066
 C,0,3.7357,0.2889,-1.4802
 N,0,4.0006,1.3875,-0.7416
 C,0,2.9577,1.6808,0.0536
 H,0,2.8832,2.4562,0.7175
 C,0,1.9946,0.722,-0.1861
 H,0,1.0802,0.6642,0.2679
 N,0,2.4976,-0.1081,-1.116
 C,0,1.8551,-1.1984,-1.6208
 C,0,0.9846,-1.063,-2.7393
 C,0,0.2779,-2.1983,-3.1938
 H,0,-0.375,-2.1048,-3.9781
 C,0,0.4393,-3.4616,-2.5927
 C,0,1.329,-3.5824,-1.5052
 H,0,1.4558,-4.5027,-1.0756
 C,0,2.038,-2.4678,-1.0042
 C,0,2.9539,-2.64,0.1568
 H,0,2.6158,-2.0162,0.9864
 H,0,3.9684,-2.3443,-0.1183
 H,0,2.9923,-3.6742,0.5071
 N,0,-0.2553,-4.5536,-3.0639
 C,0,-0.1556,-4.9417,-4.4499
 H,0,0.0204,-6.0159,-4.5326
 H,0,0.6672,-4.4363,-4.9635
 H,0,-1.0836,-4.6983,-4.9716
 C,0,-1.0976,-5.331,-2.1888
 H,0,-2.086,-5.4577,-2.6349
 H,0,-0.6551,-6.3163,-2.0287
 H,0,-1.238,-4.8587,-1.2125
 C,0,0.7457,0.2206,-3.4548
 H,0,1.5119,0.9929,-3.1514
 H,0,0.9884,0.0367,-4.5441
 H,0,-0.3697,0.4956,-3.22
 C,0,5.182,2.0637,-0.7867
 C,0,5.3843,3.0864,-1.7528
 C,0,6.6343,3.7427,-1.8
 H,0,6.7993,4.4678,-2.5024
 C,0,7.6685,3.4283,-0.8934
 C,0,7.4398,2.4245,0.0695
 H,0,8.1839,2.2015,0.7371
 C,0,6.2138,1.728,0.1336
 C,0,6.0275,0.662,1.1553
 H,0,5.2276,0.9536,1.8386
 H,0,6.93,0.483,1.7459
 H,0,5.758,-0.2771,0.6674
 N,0,8.8742,4.0956,-0.9364
 C,0,8.9237,5.5361,-0.8627
 H,0,9.6184,5.8455,-0.0796
 H,0,9.262,5.9477,-1.8161
 H,0,7.9515,5.9779,-0.6271
 C,0,10.1137,3.3668,-1.0471
 H,0,10.7027,3.7505,-1.8826
 H,0,9.9588,2.2977,-1.2205
 H,0,10.6931,3.4791,-0.1282
 C,0,4.3047,3.4897,-2.6946
 H,0,4.636,4.2471,-3.4089
 H,0,3.9521,2.6283,-3.2632
 H,0,3.4709,3.9039,-2.1251
 Recover connectivity data from disk.
                    Isotopes and Nuclear Properties:
 (Nuclear quadrupole moments (NQMom) in fm**2, nuclear magnetic moments (NMagM)
  in nuclear magnetons)

  Atom         1           2           3           4           5           6           7           8           9          10
 IAtWgt=           1          12           1         102          35          35          12          14          12           1
 AtmWgt=   1.0078250  12.0000000   1.0078250 101.9037000  34.9688527  34.9688527  12.0000000  14.0030740  12.0000000   1.0078250
 NucSpn=           1           0           1           0           3           3           0           2           0           1
 AtZEff=  -1.0000000  -3.6000000  -1.0000000-221.7600000-204.0000000-204.0000000  -3.6000000  -4.5500000  -3.6000000  -1.0000000
 NQMom=    0.0000000   0.0000000   0.0000000   0.0000000  -8.1650000  -8.1650000   0.0000000   2.0440000   0.0000000   0.0000000
 NMagM=    2.7928460   0.0000000   2.7928460   0.0000000   0.8218740   0.8218740   0.0000000   0.4037610   0.0000000   2.7928460

  Atom        11          12          13          14          15          16          17          18          19          20
 IAtWgt=          12           1          14          12          12          12           1          12          12           1
 AtmWgt=  12.0000000   1.0078250  14.0030740  12.0000000  12.0000000  12.0000000   1.0078250  12.0000000  12.0000000   1.0078250
 NucSpn=           0           1           2           0           0           0           1           0           0           1
 AtZEff=  -3.6000000  -1.0000000  -4.5500000  -3.6000000  -3.6000000  -3.6000000  -1.0000000  -3.6000000  -3.6000000  -1.0000000
 NQMom=    0.0000000   0.0000000   2.0440000   0.0000000   0.0000000   0.0000000   0.0000000   0.0000000   0.0000000   0.0000000
 NMagM=    0.0000000   2.7928460   0.4037610   0.0000000   0.0000000   0.0000000   2.7928460   0.0000000   0.0000000   2.7928460

  Atom        21          22          23          24          25          26          27          28          29          30
 IAtWgt=          12          12           1           1           1          14          12           1           1           1
 AtmWgt=  12.0000000  12.0000000   1.0078250   1.0078250   1.0078250  14.0030740  12.0000000   1.0078250   1.0078250   1.0078250
 NucSpn=           0           0           1           1           1           2           0           1           1           1
 AtZEff=  -3.6000000  -3.6000000  -1.0000000  -1.0000000  -1.0000000  -4.5500000  -3.6000000  -1.0000000  -1.0000000  -1.0000000
 NQMom=    0.0000000   0.0000000   0.0000000   0.0000000   0.0000000   2.0440000   0.0000000   0.0000000   0.0000000   0.0000000
 NMagM=    0.0000000   0.0000000   2.7928460   2.7928460   2.7928460   0.4037610   0.0000000   2.7928460   2.7928460   2.7928460

  Atom        31          32          33          34          35          36          37          38          39          40
 IAtWgt=          12           1           1           1          12           1           1           1          12          12
 AtmWgt=  12.0000000   1.0078250   1.0078250   1.0078250  12.0000000   1.0078250   1.0078250   1.0078250  12.0000000  12.0000000
 NucSpn=           0           1           1           1           0           1           1           1           0           0
 AtZEff=  -3.6000000  -1.0000000  -1.0000000  -1.0000000  -3.6000000  -1.0000000  -1.0000000  -1.0000000  -3.6000000  -3.6000000
 NQMom=    0.0000000   0.0000000   0.0000000   0.0000000   0.0000000   0.0000000   0.0000000   0.0000000   0.0000000   0.0000000
 NMagM=    0.0000000   2.7928460   2.7928460   2.7928460   0.0000000   2.7928460   2.7928460   2.7928460   0.0000000   0.0000000

  Atom        41          42          43          44          45          46          47          48          49          50
 IAtWgt=          12           1          12          12           1          12          12           1           1           1
 AtmWgt=  12.0000000   1.0078250  12.0000000  12.0000000   1.0078250  12.0000000  12.0000000   1.0078250   1.0078250   1.0078250
 NucSpn=           0           1           0           0           1           0           0           1           1           1
 AtZEff=  -3.6000000  -1.0000000  -3.6000000  -3.6000000  -1.0000000  -3.6000000  -3.6000000  -1.0000000  -1.0000000  -1.0000000
 NQMom=    0.0000000   0.0000000   0.0000000   0.0000000   0.0000000   0.0000000   0.0000000   0.0000000   0.0000000   0.0000000
 NMagM=    0.0000000   2.7928460   0.0000000   0.0000000   2.7928460   0.0000000   0.0000000   2.7928460   2.7928460   2.7928460

  Atom        51          52          53          54          55          56          57          58          59          60
 IAtWgt=          14          12           1           1           1          12           1           1           1          12
 AtmWgt=  14.0030740  12.0000000   1.0078250   1.0078250   1.0078250  12.0000000   1.0078250   1.0078250   1.0078250  12.0000000
 NucSpn=           2           0           1           1           1           0           1           1           1           0
 AtZEff=  -4.5500000  -3.6000000  -1.0000000  -1.0000000  -1.0000000  -3.6000000  -1.0000000  -1.0000000  -1.0000000  -3.6000000
 NQMom=    2.0440000   0.0000000   0.0000000   0.0000000   0.0000000   0.0000000   0.0000000   0.0000000   0.0000000   0.0000000
 NMagM=    0.4037610   0.0000000   2.7928460   2.7928460   2.7928460   0.0000000   2.7928460   2.7928460   2.7928460   0.0000000

  Atom        61          62          63
 IAtWgt=           1           1           1
 AtmWgt=   1.0078250   1.0078250   1.0078250
 NucSpn=           1           1           1
 AtZEff=  -1.0000000  -1.0000000  -1.0000000
 NQMom=    0.0000000   0.0000000   0.0000000
 NMagM=    2.7928460   2.7928460   2.7928460
 Leave Link  101 at Wed Nov 20 14:11:53 2013, MaxMem= 1887436800 cpu:       0.4
 (Enter /global/apps/gaussian/03.e01/l202.exe)
 Symmetry turned off by external request.
 Stoichiometry    C24H32Cl2N4Ru
 Framework group  C1[X(C24H32Cl2N4Ru)]
 Deg. of freedom   183
 Full point group                 C1
                         Z-Matrix orientation:                         
 ---------------------------------------------------------------------
 Center     Atomic     Atomic              Coordinates (Angstroms)
 Number     Number      Type              X           Y           Z
 ---------------------------------------------------------------------
    1          1             0        5.143900   -3.392700   -2.721000
    2          6             0        4.675400   -2.683000   -3.228500
    3          1             0        3.997200   -3.015100   -3.868300
    4         44             0        5.097400   -0.582200   -2.965900
    5         17             0        7.494400   -0.313300   -2.355100
    6         17             0        4.900000    0.477100   -5.206600
    7          6             0        3.735700    0.288900   -1.480200
    8          7             0        4.000600    1.387500   -0.741600
    9          6             0        2.957700    1.680800    0.053600
   10          1             0        2.883200    2.456200    0.717500
   11          6             0        1.994600    0.722000   -0.186100
   12          1             0        1.080200    0.664200    0.267900
   13          7             0        2.497600   -0.108100   -1.116000
   14          6             0        1.855100   -1.198400   -1.620800
   15          6             0        0.984600   -1.063000   -2.739300
   16          6             0        0.277900   -2.198300   -3.193800
   17          1             0       -0.375000   -2.104800   -3.978100
   18          6             0        0.439300   -3.461600   -2.592700
   19          6             0        1.329000   -3.582400   -1.505200
   20          1             0        1.455800   -4.502700   -1.075600
   21          6             0        2.038000   -2.467800   -1.004200
   22          6             0        2.953900   -2.640000    0.156800
   23          1             0        2.615800   -2.016200    0.986400
   24          1             0        3.968400   -2.344300   -0.118300
   25          1             0        2.992300   -3.674200    0.507100
   26          7             0       -0.255300   -4.553600   -3.063900
   27          6             0       -0.155600   -4.941700   -4.449900
   28          1             0        0.020400   -6.015900   -4.532600
   29          1             0        0.667200   -4.436300   -4.963500
   30          1             0       -1.083600   -4.698300   -4.971600
   31          6             0       -1.097600   -5.331000   -2.188800
   32          1             0       -2.086000   -5.457700   -2.634900
   33          1             0       -0.655100   -6.316300   -2.028700
   34          1             0       -1.238000   -4.858700   -1.212500
   35          6             0        0.745700    0.220600   -3.454800
   36          1             0        1.511900    0.992900   -3.151400
   37          1             0        0.988400    0.036700   -4.544100
   38          1             0       -0.369700    0.495600   -3.220000
   39          6             0        5.182000    2.063700   -0.786700
   40          6             0        5.384300    3.086400   -1.752800
   41          6             0        6.634300    3.742700   -1.800000
   42          1             0        6.799300    4.467800   -2.502400
   43          6             0        7.668500    3.428300   -0.893400
   44          6             0        7.439800    2.424500    0.069500
   45          1             0        8.183900    2.201500    0.737100
   46          6             0        6.213800    1.728000    0.133600
   47          6             0        6.027500    0.662000    1.155300
   48          1             0        5.227600    0.953600    1.838600
   49          1             0        6.930000    0.483000    1.745900
   50          1             0        5.758000   -0.277100    0.667400
   51          7             0        8.874200    4.095600   -0.936400
   52          6             0        8.923700    5.536100   -0.862700
   53          1             0        9.618400    5.845500   -0.079600
   54          1             0        9.262000    5.947700   -1.816100
   55          1             0        7.951500    5.977900   -0.627100
   56          6             0       10.113700    3.366800   -1.047100
   57          1             0       10.702700    3.750500   -1.882600
   58          1             0        9.958800    2.297700   -1.220500
   59          1             0       10.693100    3.479100   -0.128200
   60          6             0        4.304700    3.489700   -2.694600
   61          1             0        4.636000    4.247100   -3.408900
   62          1             0        3.952100    2.628300   -3.263200
   63          1             0        3.470900    3.903900   -2.125100
 ---------------------------------------------------------------------
 Rotational constants (GHZ):      0.2446604      0.0645093      0.0615737
 Leave Link  202 at Wed Nov 20 14:11:58 2013, MaxMem= 1887436800 cpu:       0.2
 (Enter /global/apps/gaussian/03.e01/l301.exe)
 Standard basis: LANL2MB (5D, 7F)
 Integral buffers will be    131072 words long.
 Raffenetti 2 integral format.
 Two-electron integral symmetry is turned off.
   193 basis functions,   590 primitive gaussians,   194 cartesian basis functions
   117 alpha electrons      117 beta electrons
       nuclear repulsion energy      3278.5635979758 Hartrees.
 IExCor=2002 DFT=T Ex=O Corr=LYP ExCW=0 ScaHFX=  0.000000
 ScaDFX=  1.000000  1.000000  1.000000  1.000000
 IRadAn=      0 IRanWt=     -1 IRanGd=            0 ICorTp=0
 NAtoms=   63 NActive=   63 NUniq=   63 SFac= 7.50D-01 NAtFMM=   80 NAOKFM=F Big=T
 Leave Link  301 at Wed Nov 20 14:12:02 2013, MaxMem= 1887436800 cpu:       0.1
 (Enter /global/apps/gaussian/03.e01/l302.exe)
 NPDir=0 NMtPBC=     1 NCelOv=     1 NCel=       1 NClECP=     1 NCelD=      1
         NCelK=      1 NCelE2=     1 NClLst=     1 CellRange=     0.0.
 One-electron integrals computed using PRISM.
   1 Symmetry operations used in ECPInt.
 ECPInt:  NShTT=    4753 NPrTT=   43666 LenC2=    3939 LenP2D=   22966.
 LDataN:  DoStor=F MaxTD1= 5 Len=  102
 LDataN:  DoStor=T MaxTD1= 5 Len=  102
 NBasis=   193 RedAO= T  NBF=   193
 NBsUse=   193 1.00D-06 NBFU=   193
 Precomputing XC quadrature grid using
 IXCGrd= 2 IRadAn=           0 IRanWt=          -1 IRanGd=           0.
 Defaulting to unpruned grid for atomic number  44.
 NRdTot=    4111 NPtTot=      533206 NUsed=      562236 NTot=      562268
 NSgBfM=   187   187   187   187.
 Leave Link  302 at Wed Nov 20 14:12:08 2013, MaxMem= 1887436800 cpu:       7.7
 (Enter /global/apps/gaussian/03.e01/l303.exe)
 DipDrv:  MaxL=1.
 Leave Link  303 at Wed Nov 20 14:12:12 2013, MaxMem= 1887436800 cpu:       0.2
 (Enter /global/apps/gaussian/03.e01/l401.exe)
 Initial guess read from the checkpoint file:
 Adn2mcompl_1_mview.chk
 Guess basis will be translated and rotated to current coordinates.
 Leave Link  401 at Wed Nov 20 14:12:17 2013, MaxMem= 1887436800 cpu:       0.7
 (Enter /global/apps/gaussian/03.e01/l502.exe)
 Closed shell SCF:
 Requested convergence on RMS density matrix=1.00D-04 within 280 cycles.
 Requested convergence on MAX density matrix=1.00D-02.
 Requested convergence on             energy=1.00D-02.
 Virtual orbitals will be shifted by   0.800 hartree.
 No special actions if energy rises.
 Using DIIS extrapolation, IDIIS=  1040.
 Two-electron integral symmetry not used.
       562235 words used for storage of precomputed grid.
 Keep R1 integrals in memory in canonical form, NReq=   184202014.
 IEnd=    776590 IEndB=    776590 NGot=1887436800 MDV=1707878917
 LenX=1707878917
 Symmetry not used in FoFDir.
 MinBra= 0 MaxBra= 2 Meth= 1.
 IRaf=       0 NMat=   1 IRICut=       1 DoRegI=T DoRafI=F ISym2E= 0 JSym2E=0.

 Cycle   1  Pass 1  IDiag  1:
 Defaulting to unpruned grid for atomic number  44.
 Defaulting to unpruned grid for atomic number  44.
 Defaulting to unpruned grid for atomic number  44.
 Defaulting to unpruned grid for atomic number  44.
 Defaulting to unpruned grid for atomic number  44.
 Defaulting to unpruned grid for atomic number  44.
 Defaulting to unpruned grid for atomic number  44.
 Defaulting to unpruned grid for atomic number  44.
 E= -1262.06840771975    
 DIIS: error= 1.98D-02 at cycle   1 NSaved=   1.
 NSaved= 1 IEnMin= 1 EnMin= -1262.06840771975     IErMin= 1 ErrMin= 1.98D-02
 ErrMax= 1.98D-02 EMaxC= 1.00D-01 BMatC= 7.32D-02 BMatP= 7.32D-02
 IDIUse=3 WtCom= 8.02D-01 WtEn= 1.98D-01
 Coeff-Com:  0.100D+01
 Coeff-En:   0.100D+01
 Coeff:      0.100D+01
 Gap=    -0.083 Goal=   None    Shift=    0.800
 GapD=   -0.083 DampG=0.250 DampE=0.250 DampFc=0.1250 IDamp=-1.
 Damping current iteration by 1.25D-01
 RMSDP=1.36D-03 MaxDP=4.58D-02              OVMax= 0.00D+00

 Cycle   2  Pass 1  IDiag  1:
 E= -1262.07949031051     Delta-E=       -0.011082590769 Rises=F Damp=T
 DIIS: error= 1.74D-02 at cycle   2 NSaved=   2.
 NSaved= 2 IEnMin= 2 EnMin= -1262.07949031051     IErMin= 2 ErrMin= 1.74D-02
 ErrMax= 1.74D-02 EMaxC= 1.00D-01 BMatC= 5.94D-02 BMatP= 7.32D-02
 IDIUse=3 WtCom= 8.26D-01 WtEn= 1.74D-01
 Coeff-Com: -0.786D+01 0.886D+01
 Coeff-En:   0.000D+00 0.100D+01
 Coeff:     -0.649D+01 0.749D+01
 Gap=    -0.077 Goal=   None    Shift=    0.800
 RMSDP=1.91D-03 MaxDP=6.27D-02 DE=-1.11D-02 OVMax= 0.00D+00

 Cycle   3  Pass 1  IDiag  1:
 E= -1262.17538752783     Delta-E=       -0.095897217315 Rises=F Damp=F
 DIIS: error= 7.11D-03 at cycle   3 NSaved=   3.
 NSaved= 3 IEnMin= 3 EnMin= -1262.17538752783     IErMin= 3 ErrMin= 7.11D-03
 ErrMax= 7.11D-03 EMaxC= 1.00D-01 BMatC= 4.66D-03 BMatP= 5.94D-02
 IDIUse=3 WtCom= 9.29D-01 WtEn= 7.11D-02
 Large coefficients: NSaved=  3 BigCof=   10.22 CofMax=   10.00 Det=-1.42D-05
 Inversion failed.  Reducing to  2 matrices.
 Coeff-Com: -0.547D-01 0.105D+01
 Coeff-En:   0.000D+00 0.100D+01
 Coeff:     -0.508D-01 0.105D+01
 Gap=    -0.043 Goal=   None    Shift=    0.800
 RMSDP=6.08D-04 MaxDP=2.77D-02 DE=-9.59D-02 OVMax= 0.00D+00

 Cycle   4  Pass 1  IDiag  1:
 E= -1262.19233116962     Delta-E=       -0.016943641794 Rises=F Damp=F
 DIIS: error= 5.85D-03 at cycle   4 NSaved=   3.
 NSaved= 3 IEnMin= 3 EnMin= -1262.19233116962     IErMin= 3 ErrMin= 5.85D-03
 ErrMax= 5.85D-03 EMaxC= 1.00D-01 BMatC= 2.92D-03 BMatP= 4.66D-03
 IDIUse=3 WtCom= 9.42D-01 WtEn= 5.85D-02
 Coeff-Com: -0.204D-01-0.182D+01 0.284D+01
 Coeff-En:   0.000D+00 0.000D+00 0.100D+01
 Coeff:     -0.192D-01-0.171D+01 0.273D+01
 Gap=    -0.022 Goal=   None    Shift=    0.800
 RMSDP=4.68D-04 MaxDP=2.63D-02 DE=-1.69D-02 OVMax= 0.00D+00

 Cycle   5  Pass 1  IDiag  1:
 E= -1262.20168872953     Delta-E=       -0.009357559911 Rises=F Damp=F
 DIIS: error= 6.12D-03 at cycle   5 NSaved=   4.
 NSaved= 4 IEnMin= 4 EnMin= -1262.20168872953     IErMin= 3 ErrMin= 5.85D-03
 ErrMax= 6.12D-03 EMaxC= 1.00D-01 BMatC= 2.36D-03 BMatP= 2.92D-03
 IDIUse=3 WtCom= 9.39D-01 WtEn= 6.12D-02
 Coeff-Com: -0.367D-02-0.178D+01 0.199D+01 0.795D+00
 Coeff-En:   0.000D+00 0.000D+00 0.000D+00 0.100D+01
 Coeff:     -0.344D-02-0.167D+01 0.187D+01 0.807D+00
 Gap=    -0.033 Goal=   None    Shift=    0.800
 RMSDP=3.68D-04 MaxDP=1.76D-02 DE=-9.36D-03 OVMax= 0.00D+00

 Cycle   6  Pass 1  IDiag  1:
 E= -1262.20884125862     Delta-E=       -0.007152529087 Rises=F Damp=F
 DIIS: error= 5.20D-03 at cycle   6 NSaved=   5.
 NSaved= 5 IEnMin= 5 EnMin= -1262.20884125862     IErMin= 5 ErrMin= 5.20D-03
 ErrMax= 5.20D-03 EMaxC= 1.00D-01 BMatC= 1.72D-03 BMatP= 2.36D-03
 IDIUse=3 WtCom= 9.48D-01 WtEn= 5.20D-02
 Coeff-Com:  0.949D-02-0.322D+00 0.590D+00-0.379D+01 0.451D+01
 Coeff-En:   0.000D+00 0.000D+00 0.000D+00 0.000D+00 0.100D+01
 Coeff:      0.900D-02-0.306D+00 0.559D+00-0.359D+01 0.433D+01
 Gap=    -0.028 Goal=   None    Shift=    0.800
 RMSDP=3.02D-04 MaxDP=1.37D-02 DE=-7.15D-03 OVMax= 0.00D+00

 Cycle   7  Pass 1  IDiag  1:
 E= -1262.21346739669     Delta-E=       -0.004626138070 Rises=F Damp=F
 DIIS: error= 4.84D-03 at cycle   7 NSaved=   6.
 NSaved= 6 IEnMin= 6 EnMin= -1262.21346739669     IErMin= 6 ErrMin= 4.84D-03
 ErrMax= 4.84D-03 EMaxC= 1.00D-01 BMatC= 1.53D-03 BMatP= 1.72D-03
 IDIUse=3 WtCom= 9.52D-01 WtEn= 4.84D-02
 Coeff-Com: -0.489D-02 0.310D+00 0.366D+00-0.470D+01 0.330D+01 0.172D+01
 Coeff-En:   0.000D+00 0.000D+00 0.000D+00 0.000D+00 0.000D+00 0.100D+01
 Coeff:     -0.465D-02 0.295D+00 0.348D+00-0.447D+01 0.314D+01 0.169D+01
 Gap=    -0.029 Goal=   None    Shift=    0.800
 RMSDP=2.53D-04 MaxDP=1.22D-02 DE=-4.63D-03 OVMax= 0.00D+00

 Cycle   8  Pass 1  IDiag  1:
 E= -1262.21699320051     Delta-E=       -0.003525803822 Rises=F Damp=F
 DIIS: error= 4.35D-03 at cycle   8 NSaved=   7.
 NSaved= 7 IEnMin= 7 EnMin= -1262.21699320051     IErMin= 7 ErrMin= 4.35D-03
 ErrMax= 4.35D-03 EMaxC= 1.00D-01 BMatC= 1.29D-03 BMatP= 1.53D-03
 IDIUse=3 WtCom= 9.56D-01 WtEn= 4.35D-02
 Coeff-Com: -0.626D-02 0.304D+00 0.821D+00-0.292D+01 0.771D+00-0.270D+01
 Coeff-Com:  0.473D+01
 Coeff-En:   0.000D+00 0.000D+00 0.000D+00 0.000D+00 0.000D+00 0.000D+00
 Coeff-En:   0.100D+01
 Coeff:     -0.599D-02 0.291D+00 0.785D+00-0.279D+01 0.737D+00-0.258D+01
 Coeff:      0.457D+01
 Gap=    -0.028 Goal=   None    Shift=    0.800
 RMSDP=2.11D-04 MaxDP=9.01D-03 DE=-3.53D-03 OVMax= 0.00D+00

 Cycle   9  Pass 1  IDiag  1:
 E= -1262.21918139184     Delta-E=       -0.002188191331 Rises=F Damp=F
 DIIS: error= 4.25D-03 at cycle   9 NSaved=   8.
 NSaved= 8 IEnMin= 8 EnMin= -1262.21918139184     IErMin= 8 ErrMin= 4.25D-03
 ErrMax= 4.25D-03 EMaxC= 1.00D-01 BMatC= 1.32D-03 BMatP= 1.29D-03
 IDIUse=3 WtCom= 9.58D-01 WtEn= 4.25D-02
 Coeff-Com: -0.416D-02-0.157D+00 0.156D+01-0.171D+01 0.318D+00-0.486D+01
 Coeff-Com:  0.326D+01 0.259D+01
 Coeff-En:   0.000D+00 0.000D+00 0.000D+00 0.000D+00 0.000D+00 0.000D+00
 Coeff-En:   0.000D+00 0.100D+01
 Coeff:     -0.398D-02-0.150D+00 0.149D+01-0.164D+01 0.304D+00-0.465D+01
 Coeff:      0.313D+01 0.252D+01
[...]
 Iteration   4 EE= -1276.19750467548     Delta-E=       -0.000026496687 Grad=1.118D-04
 QCNR:  CnvC1=1.12D-09 CnvC2=1.12D-08
 LinEq1:  Iter=  0 NonCon=   1 RMS=1.91D-07 Max=2.23D-05
 LinEq1:  Iter=  1 NonCon=   1 RMS=1.98D-07 Max=1.43D-05
 LinEq1:  Iter=  2 NonCon=   1 RMS=3.96D-07 Max=1.94D-05
 LinEq1:  Iter=  3 NonCon=   1 RMS=4.65D-07 Max=2.66D-05
 LinEq1:  Iter=  4 NonCon=   1 RMS=3.11D-07 Max=1.93D-05
 LinEq1:  Iter=  5 NonCon=   1 RMS=2.28D-07 Max=1.68D-05
 LinEq1:  Iter=  6 NonCon=   1 RMS=1.38D-07 Max=5.99D-06
 LinEq1:  Iter=  7 NonCon=   1 RMS=1.06D-07 Max=5.20D-06
 LinEq1:  Iter=  8 NonCon=   1 RMS=9.78D-08 Max=5.67D-06
 LinEq1:  Iter=  9 NonCon=   1 RMS=6.30D-08 Max=1.95D-06
 LinEq1:  Iter= 10 NonCon=   1 RMS=6.74D-08 Max=2.64D-06
 LinEq1:  Iter= 11 NonCon=   1 RMS=6.85D-08 Max=3.00D-06
 LinEq1:  Iter= 12 NonCon=   1 RMS=3.79D-08 Max=1.27D-06
 LinEq1:  Iter= 13 NonCon=   1 RMS=3.01D-08 Max=8.64D-07
 LinEq1:  Iter= 14 NonCon=   1 RMS=1.88D-08 Max=6.35D-07
 LinEq1:  Iter= 15 NonCon=   1 RMS=1.20D-08 Max=2.93D-07
 LinEq1:  Iter= 16 NonCon=   1 RMS=8.96D-09 Max=3.58D-07
 LinEq1:  Iter= 17 NonCon=   1 RMS=5.87D-09 Max=1.87D-07
 LinEq1:  Iter= 18 NonCon=   1 RMS=3.50D-09 Max=1.65D-07
 LinEq1:  Iter= 19 NonCon=   1 RMS=2.69D-09 Max=7.90D-08
 LinEq1:  Iter= 20 NonCon=   1 RMS=1.45D-09 Max=4.88D-08
 LinEq1:  Iter= 21 NonCon=   1 RMS=1.33D-09 Max=4.65D-08
 LinEq1:  Iter= 22 NonCon=   1 RMS=7.27D-10 Max=2.68D-08
 LinEq1:  Iter= 23 NonCon=   1 RMS=4.64D-10 Max=1.12D-08
 LinEq1:  Iter= 24 NonCon=   0 RMS=2.32D-10 Max=5.21D-09
 Linear equations converged to 1.118D-09 1.118D-08 after  24 iterations.
 Angle between quadratic step and gradient=  71.34 degrees.
     ILin= 1 X=0.000D+00 Y=-1.276197504675D+03 DE= 0.00D+00
     ILin= 2 X=1.000D+00 Y=-1.276197504677D+03 DE=-1.30D-09
 Iteration   5 EE= -1276.19750467678     Delta-E=       -0.000000001296 Grad=3.267D-06
 QCNR:  CnvC1=3.27D-11 CnvC2=3.27D-10
 LinEq1:  Iter=  0 NonCon=   1 RMS=4.05D-09 Max=5.73D-08
 LinEq1:  Iter=  1 NonCon=   1 RMS=5.67D-09 Max=2.82D-07
 LinEq1:  Iter=  2 NonCon=   1 RMS=8.53D-09 Max=6.00D-07
 LinEq1:  Iter=  3 NonCon=   1 RMS=1.31D-08 Max=5.79D-07
 LinEq1:  Iter=  4 NonCon=   1 RMS=1.36D-08 Max=6.42D-07
 LinEq1:  Iter=  5 NonCon=   1 RMS=1.01D-08 Max=3.26D-07
 LinEq1:  Iter=  6 NonCon=   1 RMS=7.93D-09 Max=4.10D-07
 LinEq1:  Iter=  7 NonCon=   1 RMS=7.14D-09 Max=3.10D-07
 LinEq1:  Iter=  8 NonCon=   1 RMS=6.53D-09 Max=2.70D-07
 LinEq1:  Iter=  9 NonCon=   1 RMS=5.14D-09 Max=2.51D-07
 LinEq1:  Iter= 10 NonCon=   1 RMS=4.84D-09 Max=1.66D-07
 LinEq1:  Iter= 11 NonCon=   1 RMS=2.48D-09 Max=7.41D-08
 LinEq1:  Iter= 12 NonCon=   1 RMS=2.51D-09 Max=1.72D-07
 LinEq1:  Iter= 13 NonCon=   1 RMS=1.43D-09 Max=6.04D-08
 LinEq1:  Iter= 14 NonCon=   1 RMS=9.72D-10 Max=3.45D-08
 LinEq1:  Iter= 15 NonCon=   1 RMS=6.22D-10 Max=2.02D-08
 LinEq1:  Iter= 16 NonCon=   1 RMS=5.30D-10 Max=2.00D-08
 LinEq1:  Iter= 17 NonCon=   1 RMS=2.80D-10 Max=1.04D-08
 LinEq1:  Iter= 18 NonCon=   1 RMS=1.87D-10 Max=8.20D-09
 LinEq1:  Iter= 19 NonCon=   1 RMS=1.23D-10 Max=4.44D-09
 LinEq1:  Iter= 20 NonCon=   1 RMS=7.97D-11 Max=2.40D-09
 LinEq1:  Iter= 21 NonCon=   1 RMS=5.17D-11 Max=1.80D-09
 LinEq1:  Iter= 22 NonCon=   1 RMS=4.14D-11 Max=1.66D-09
 LinEq1:  Iter= 23 NonCon=   1 RMS=2.42D-11 Max=8.48D-10
 LinEq1:  Iter= 24 NonCon=   1 RMS=1.50D-11 Max=3.65D-10
 LinEq1:  Iter= 25 NonCon=   0 RMS=1.01D-11 Max=2.49D-10
 Linear equations converged to 3.267D-11 3.267D-10 after  25 iterations.
 Angle between quadratic step and gradient=  56.13 degrees.
     ILin= 1 X=0.000D+00 Y=-1.276197504677D+03 DE= 0.00D+00
     ILin= 2 X=1.000D+00 Y=-1.276197504677D+03 DE= 7.46D-11
     ILin= 3 X=1.414D+00 Y=-1.276197504677D+03 DE= 3.37D-11
     ILin= 4 X=2.000D+00 Y=-1.276197504677D+03 DE= 4.18D-11
     Reject polynomial minimum 1.719D+00.
     ILin= 5 X=2.828D+00 Y=-1.276197504677D+03 DE= 7.82D-11
     Reject polynomial minimum 1.664D+00.
     ILin= 6 X=4.000D+00 Y=-1.276197504677D+03 DE= 2.73D-11
     ILin= 7 X=5.657D+00 Y=-1.276197504677D+03 DE=-8.91D-11
     ILin= 8 X=8.000D+00 Y=-1.276197504677D+03 DE= 1.25D-10
     Reject polynomial minimum 2.500D-01.
     ILin= 9 X=1.131D+01 Y=-1.276197504677D+03 DE= 1.80D-10
     Reject polynomial minimum 1.264D+00.
     ILin=10 X=1.600D+01 Y=-1.276197504676D+03 DE= 3.12D-10
     No minimum found in polynomial.
     ILin=11 X=2.263D+01 Y=-1.276197504676D+03 DE= 7.43D-10
     No minimum found in polynomial.
     ILin=12 X=3.200D+01 Y=-1.276197504675D+03 DE= 1.43D-09
     No minimum found in polynomial.
     ILin=13 X=4.525D+01 Y=-1.276197504674D+03 DE= 2.92D-09
     No minimum found in polynomial.
     ILin=14 X=6.400D+01 Y=-1.276197504671D+03 DE= 6.00D-09
     Reject polynomial minimum 8.393D+00.
     ILin=15 X=9.051D+01 Y=-1.276197504665D+03 DE= 1.22D-08
     No minimum found in polynomial.
     ILin=16 X=1.280D+02 Y=-1.276197504652D+03 DE= 2.43D-08
     No minimum found in polynomial.
 The polynomial fit failed.  Using point  7.
     An  expanding polynomial of degree 16 produced  5.6569
 Iteration   6 EE= -1276.19750467687     Delta-E=       -0.000000000089 Grad=1.521D-05
 QCNR:  CnvC1=1.52D-10 CnvC2=1.52D-09
 LinEq1:  Iter=  0 NonCon=   1 RMS=1.88D-08 Max=2.64D-07
 LinEq1:  Iter=  1 NonCon=   1 RMS=2.64D-08 Max=1.30D-06
 LinEq1:  Iter=  2 NonCon=   1 RMS=3.94D-08 Max=2.78D-06
 LinEq1:  Iter=  3 NonCon=   1 RMS=6.07D-08 Max=2.70D-06
 LinEq1:  Iter=  4 NonCon=   1 RMS=6.34D-08 Max=2.99D-06
 LinEq1:  Iter=  5 NonCon=   1 RMS=4.69D-08 Max=1.53D-06
 LinEq1:  Iter=  6 NonCon=   1 RMS=3.70D-08 Max=1.90D-06
 LinEq1:  Iter=  7 NonCon=   1 RMS=3.33D-08 Max=1.45D-06
 LinEq1:  Iter=  8 NonCon=   1 RMS=3.05D-08 Max=1.26D-06
 LinEq1:  Iter=  9 NonCon=   1 RMS=2.39D-08 Max=1.17D-06
 LinEq1:  Iter= 10 NonCon=   1 RMS=2.26D-08 Max=7.82D-07
 LinEq1:  Iter= 11 NonCon=   1 RMS=1.16D-08 Max=3.46D-07
 LinEq1:  Iter= 12 NonCon=   1 RMS=1.17D-08 Max=8.01D-07
 LinEq1:  Iter= 13 NonCon=   1 RMS=6.65D-09 Max=2.80D-07
 LinEq1:  Iter= 14 NonCon=   1 RMS=4.52D-09 Max=1.60D-07
 LinEq1:  Iter= 15 NonCon=   1 RMS=2.90D-09 Max=9.24D-08
 LinEq1:  Iter= 16 NonCon=   1 RMS=2.45D-09 Max=9.23D-08
 LinEq1:  Iter= 17 NonCon=   1 RMS=1.31D-09 Max=4.94D-08
 LinEq1:  Iter= 18 NonCon=   1 RMS=8.77D-10 Max=3.87D-08
 LinEq1:  Iter= 19 NonCon=   1 RMS=5.74D-10 Max=2.08D-08
 LinEq1:  Iter= 20 NonCon=   1 RMS=3.70D-10 Max=1.12D-08
 LinEq1:  Iter= 21 NonCon=   1 RMS=2.38D-10 Max=8.35D-09
 LinEq1:  Iter= 22 NonCon=   1 RMS=1.88D-10 Max=7.59D-09
 LinEq1:  Iter= 23 NonCon=   1 RMS=1.06D-10 Max=3.90D-09
 LinEq1:  Iter= 24 NonCon=   1 RMS=6.51D-11 Max=1.74D-09
 LinEq1:  Iter= 25 NonCon=   0 RMS=3.95D-11 Max=1.02D-09
 Linear equations converged to 1.521D-10 1.521D-09 after  25 iterations.
 Angle between quadratic step and gradient=  56.12 degrees.
     ILin= 1 X=0.000D+00 Y=-1.276197504677D+03 DE= 0.00D+00
     ILin= 2 X=1.000D+00 Y=-1.276197504677D+03 DE= 2.00D-10
     ILin= 3 X=1.414D+00 Y=-1.276197504677D+03 DE= 7.82D-11
     ILin= 4 X=2.000D+00 Y=-1.276197504677D+03 DE= 2.21D-10
     Reject polynomial minimum 1.575D+00.
     ILin= 5 X=2.828D+00 Y=-1.276197504677D+03 DE= 2.04D-10
     ILin= 6 X=4.000D+00 Y=-1.276197504676D+03 DE= 5.10D-10
     Reject polynomial minimum 3.517D+00.
     ILin= 7 X=5.657D+00 Y=-1.276197504676D+03 DE= 8.24D-10
     Reject polynomial minimum 3.697D+00.
     ILin= 8 X=8.000D+00 Y=-1.276197504675D+03 DE= 1.74D-09
     Reject polynomial minimum 7.756D+00.
     ILin= 9 X=1.131D+01 Y=-1.276197504673D+03 DE= 3.63D-09
     Reject polynomial minimum 6.853D+00.
     ILin=10 X=1.600D+01 Y=-1.276197504669D+03 DE= 7.50D-09
     No minimum found in polynomial.
     ILin=11 X=2.263D+01 Y=-1.276197504661D+03 DE= 1.54D-08
     No minimum found in polynomial.
     ILin=12 X=3.200D+01 Y=-1.276197504645D+03 DE= 3.15D-08
     No minimum found in polynomial.
     ILin=13 X=4.525D+01 Y=-1.276197504613D+03 DE= 6.42D-08
     No minimum found in polynomial.
     ILin=14 X=6.400D+01 Y=-1.276197504547D+03 DE= 1.30D-07
     No minimum found in polynomial.
     ILin=15 X=9.051D+01 Y=-1.276197504415D+03 DE= 2.62D-07
     No minimum found in polynomial.
     ILin=16 X=1.280D+02 Y=-1.276197504149D+03 DE= 5.28D-07
     No minimum found in polynomial.
 The polynomial fit failed.  Using point  1.
     An  expanding polynomial of degree 16 produced  0.0000
 Search did not lower the energy significantly.
 No lower point found -- try reversing direction.
     ILin= 1 X=0.000D+00 Y=-1.276197504677D+03 DE= 0.00D+00
     ILin= 2 X=1.000D+00 Y=-1.276197504677D+03 DE= 2.66D-10
     ILin= 3 X=1.414D+00 Y=-1.276197504677D+03 DE= 2.73D-10
     No minimum found in polynomial.
     ILin= 4 X=2.000D+00 Y=-1.276197504676D+03 DE= 3.72D-10
     No minimum found in polynomial.
     ILin= 5 X=2.828D+00 Y=-1.276197504676D+03 DE= 5.68D-10
     Reject polynomial minimum 1.105D+00.
     ILin= 6 X=4.000D+00 Y=-1.276197504676D+03 DE= 8.64D-10
     No minimum found in polynomial.
     ILin= 7 X=5.657D+00 Y=-1.276197504675D+03 DE= 1.59D-09
     Reject polynomial minimum-2.256D+00.
     ILin= 8 X=8.000D+00 Y=-1.276197504674D+03 DE= 2.79D-09
     Reject polynomial minimum 1.480D-01.
     ILin= 9 X=1.131D+01 Y=-1.276197504672D+03 DE= 5.07D-09
     Reject polynomial minimum 1.176D+00.
     ILin=10 X=1.600D+01 Y=-1.276197504667D+03 DE= 9.48D-09
     Reject polynomial minimum 1.485D+01.
     ILin=11 X=2.263D+01 Y=-1.276197504658D+03 DE= 1.85D-08
     No minimum found in polynomial.
     ILin=12 X=3.200D+01 Y=-1.276197504641D+03 DE= 3.57D-08
     Reject polynomial minimum 2.101D+01.
     ILin=13 X=4.525D+01 Y=-1.276197504607D+03 DE= 7.01D-08
     No minimum found in polynomial.
     ILin=14 X=6.400D+01 Y=-1.276197504538D+03 DE= 1.38D-07
     Reject polynomial minimum 2.520D-01.
     ILin=15 X=9.051D+01 Y=-1.276197504403D+03 DE= 2.74D-07
     No minimum found in polynomial.
     ILin=16 X=1.280D+02 Y=-1.276197504133D+03 DE= 5.44D-07
     No minimum found in polynomial.
 The polynomial fit failed.  Using point  1.
     An  expanding polynomial of degree 16 produced  0.0000
 Search did not lower the energy significantly.
 No lower point found -- switch to scaled steepest descent.
     ILin= 1 X=0.000D+00 Y=-1.276197504677D+03 DE= 0.00D+00
     ILin= 2 X=1.000D+00 Y=-1.276197504677D+03 DE= 1.02D-10
     ILin= 3 X=1.414D+00 Y=-1.276197504677D+03 DE= 1.11D-10
     No minimum found in polynomial.
     ILin= 4 X=2.000D+00 Y=-1.276197504677D+03 DE= 1.16D-10
     Reject polynomial minimum 1.864D+00.
     ILin= 5 X=2.828D+00 Y=-1.276197504677D+03 DE= 2.35D-10
     Reject polynomial minimum-1.032D+00.
     ILin= 6 X=4.000D+00 Y=-1.276197504676D+03 DE= 4.11D-10
     Reject polynomial minimum-1.104D-01.
     ILin= 7 X=5.657D+00 Y=-1.276197504676D+03 DE= 8.31D-10
     Reject polynomial minimum 5.271D+00.
     ILin= 8 X=8.000D+00 Y=-1.276197504675D+03 DE= 1.76D-09
     Reject polynomial minimum 2.767D-01.
     ILin= 9 X=1.131D+01 Y=-1.276197504673D+03 DE= 3.64D-09
     Reject polynomial minimum 1.132D+00.
     ILin=10 X=1.600D+01 Y=-1.276197504669D+03 DE= 7.46D-09
     Reject polynomial minimum 1.497D+01.
     ILin=11 X=2.263D+01 Y=-1.276197504662D+03 DE= 1.53D-08
     No minimum found in polynomial.
     ILin=12 X=3.200D+01 Y=-1.276197504646D+03 DE= 3.13D-08
     No minimum found in polynomial.
     ILin=13 X=4.525D+01 Y=-1.276197504614D+03 DE= 6.33D-08
     No minimum found in polynomial.
     ILin=14 X=6.400D+01 Y=-1.276197504549D+03 DE= 1.28D-07
     No minimum found in polynomial.
     ILin=15 X=9.051D+01 Y=-1.276197504418D+03 DE= 2.59D-07
     No minimum found in polynomial.
     ILin=16 X=1.280D+02 Y=-1.276197504156D+03 DE= 5.21D-07
     No minimum found in polynomial.
 The polynomial fit failed.  Using point  1.
     An  expanding polynomial of degree 16 produced  0.0000
 Search did not lower the energy significantly.
 Scaled steepest descent with Shift=0.200 failed.
     ILin= 1 X=0.000D+00 Y=-1.276197504677D+03 DE= 0.00D+00
     ILin= 2 X=1.000D+00 Y=-1.276197504677D+03 DE= 1.78D-10
     ILin= 3 X=1.414D+00 Y=-1.276197504677D+03 DE= 1.49D-10
     ILin= 4 X=2.000D+00 Y=-1.276197504677D+03 DE= 1.80D-10
     Reject polynomial minimum 1.614D+00.
     ILin= 5 X=2.828D+00 Y=-1.276197504677D+03 DE= 2.04D-10
     Reject polynomial minimum 1.512D+00.
     ILin= 6 X=4.000D+00 Y=-1.276197504676D+03 DE= 4.39D-10
     Reject polynomial minimum 1.427D+00.
     ILin= 7 X=5.657D+00 Y=-1.276197504676D+03 DE= 8.59D-10
     No minimum found in polynomial.
     ILin= 8 X=8.000D+00 Y=-1.276197504675D+03 DE= 1.69D-09
     Reject polynomial minimum 9.101D+00.
     ILin= 9 X=1.131D+01 Y=-1.276197504673D+03 DE= 3.56D-09
     Reject polynomial minimum 6.694D+00.
     ILin=10 X=1.600D+01 Y=-1.276197504670D+03 DE= 7.27D-09
     No minimum found in polynomial.
     ILin=11 X=2.263D+01 Y=-1.276197504662D+03 DE= 1.48D-08
     Reject polynomial minimum 2.071D+01.
     ILin=12 X=3.200D+01 Y=-1.276197504646D+03 DE= 3.05D-08
     No minimum found in polynomial.
     ILin=13 X=4.525D+01 Y=-1.276197504615D+03 DE= 6.20D-08
     No minimum found in polynomial.
     ILin=14 X=6.400D+01 Y=-1.276197504551D+03 DE= 1.25D-07
     No minimum found in polynomial.
     ILin=15 X=9.051D+01 Y=-1.276197504424D+03 DE= 2.53D-07
     No minimum found in polynomial.
     ILin=16 X=1.280D+02 Y=-1.276197504167D+03 DE= 5.09D-07
     No minimum found in polynomial.
 The polynomial fit failed.  Using point  1.
     An  expanding polynomial of degree 16 produced  0.0000
 Search did not lower the energy significantly.
 Scaled steepest descent with Shift=0.225 failed.
     ILin= 1 X=0.000D+00 Y=-1.276197504677D+03 DE= 0.00D+00
     ILin= 2 X=1.000D+00 Y=-1.276197504677D+03 DE= 1.37D-10
     ILin= 3 X=1.414D+00 Y=-1.276197504677D+03 DE= 6.18D-11
     ILin= 4 X=2.000D+00 Y=-1.276197504677D+03 DE= 1.16D-10
     Reject polynomial minimum 1.630D+00.
     ILin= 5 X=2.828D+00 Y=-1.276197504677D+03 DE= 2.65D-10
     Reject polynomial minimum 1.556D+00.
     ILin= 6 X=4.000D+00 Y=-1.276197504676D+03 DE= 3.82D-10
     Reject polynomial minimum 1.590D+00.
     ILin= 7 X=5.657D+00 Y=-1.276197504676D+03 DE= 8.38D-10
     Reject polynomial minimum 5.890D+00.
     ILin= 8 X=8.000D+00 Y=-1.276197504675D+03 DE= 1.73D-09
     Reject polynomial minimum 5.065D-02.
     ILin= 9 X=1.131D+01 Y=-1.276197504673D+03 DE= 3.48D-09
     Reject polynomial minimum 6.706D+00.
     ILin=10 X=1.600D+01 Y=-1.276197504670D+03 DE= 7.14D-09
     Reject polynomial minimum 1.497D+01.
     ILin=11 X=2.263D+01 Y=-1.276197504662D+03 DE= 1.46D-08
     No minimum found in polynomial.
     ILin=12 X=3.200D+01 Y=-1.276197504647D+03 DE= 2.99D-08
     No minimum found in polynomial.
     ILin=13 X=4.525D+01 Y=-1.276197504616D+03 DE= 6.07D-08
     No minimum found in polynomial.
     ILin=14 X=6.400D+01 Y=-1.276197504554D+03 DE= 1.23D-07
     No minimum found in polynomial.
     ILin=15 X=9.051D+01 Y=-1.276197504429D+03 DE= 2.48D-07
     No minimum found in polynomial.
     ILin=16 X=1.280D+02 Y=-1.276197504178D+03 DE= 4.99D-07
     No minimum found in polynomial.
 The polynomial fit failed.  Using point  1.
     An  expanding polynomial of degree 16 produced  0.0000
 Search did not lower the energy significantly.
 Scaled steepest descent with Shift=0.250 failed.
     ILin= 1 X=0.000D+00 Y=-1.276197504677D+03 DE= 0.00D+00
     ILin= 2 X=1.000D+00 Y=-1.276197504677D+03 DE= 1.05D-10
     ILin= 3 X=1.414D+00 Y=-1.276197504677D+03 DE= 9.46D-11
     ILin= 4 X=2.000D+00 Y=-1.276197504677D+03 DE= 1.00D-10
     Reject polynomial minimum 1.668D+00.
     ILin= 5 X=2.828D+00 Y=-1.276197504677D+03 DE= 1.95D-10
     Reject polynomial minimum 1.531D+00.
     ILin= 6 X=4.000D+00 Y=-1.276197504676D+03 DE= 4.60D-10
     Reject polynomial minimum 1.752D+00.
     ILin= 7 X=5.657D+00 Y=-1.276197504676D+03 DE= 7.99D-10
     Reject polynomial minimum 5.844D+00.
     ILin= 8 X=8.000D+00 Y=-1.276197504675D+03 DE= 1.60D-09
     Reject polynomial minimum 2.652D-01.
     ILin= 9 X=1.131D+01 Y=-1.276197504674D+03 DE= 3.23D-09
     Reject polynomial minimum 1.165D+00.
     ILin=10 X=1.600D+01 Y=-1.276197504670D+03 DE= 6.89D-09
     No minimum found in polynomial.
     ILin=11 X=2.263D+01 Y=-1.276197504663D+03 DE= 1.43D-08
     No minimum found in polynomial.
     ILin=12 X=3.200D+01 Y=-1.276197504648D+03 DE= 2.92D-08
     Reject polynomial minimum 2.794D-01.
     ILin=13 X=4.525D+01 Y=-1.276197504617D+03 DE= 5.96D-08
     No minimum found in polynomial.
     ILin=14 X=6.400D+01 Y=-1.276197504557D+03 DE= 1.20D-07
     Reject polynomial minimum 2.598D-01.
     ILin=15 X=9.051D+01 Y=-1.276197504434D+03 DE= 2.43D-07
     No minimum found in polynomial.
     ILin=16 X=1.280D+02 Y=-1.276197504188D+03 DE= 4.89D-07
     No minimum found in polynomial.
 The polynomial fit failed.  Using point  1.
     An  expanding polynomial of degree 16 produced  0.0000
 Search did not lower the energy significantly.
 Scaled steepest descent with Shift=0.275 failed.
     ILin= 1 X=0.000D+00 Y=-1.276197504677D+03 DE= 0.00D+00
     ILin= 2 X=1.000D+00 Y=-1.276197504677D+03 DE= 1.22D-10
     ILin= 3 X=1.414D+00 Y=-1.276197504677D+03 DE= 9.09D-11
     ILin= 4 X=2.000D+00 Y=-1.276197504677D+03 DE= 1.33D-10
     Reject polynomial minimum 1.596D+00.
     ILin= 5 X=2.828D+00 Y=-1.276197504677D+03 DE= 2.55D-10
     Reject polynomial minimum 1.445D+00.
     ILin= 6 X=4.000D+00 Y=-1.276197504677D+03 DE= 3.27D-10
     Reject polynomial minimum 1.440D+00.
     ILin= 7 X=5.657D+00 Y=-1.276197504676D+03 DE= 7.10D-10
     Reject polynomial minimum 5.785D+00.
     ILin= 8 X=8.000D+00 Y=-1.276197504675D+03 DE= 1.56D-09
     Reject polynomial minimum 2.241D-01.
     ILin= 9 X=1.131D+01 Y=-1.276197504674D+03 DE= 3.27D-09
     Reject polynomial minimum 1.235D+00.
     ILin=10 X=1.600D+01 Y=-1.276197504670D+03 DE= 6.80D-09
     No minimum found in polynomial.
     ILin=11 X=2.263D+01 Y=-1.276197504663D+03 DE= 1.40D-08
     No minimum found in polynomial.
     ILin=12 X=3.200D+01 Y=-1.276197504648D+03 DE= 2.88D-08
     No minimum found in polynomial.
     ILin=13 X=4.525D+01 Y=-1.276197504618D+03 DE= 5.84D-08
     No minimum found in polynomial.
     ILin=14 X=6.400D+01 Y=-1.276197504559D+03 DE= 1.18D-07
     No minimum found in polynomial.
     ILin=15 X=9.051D+01 Y=-1.276197504439D+03 DE= 2.38D-07
     No minimum found in polynomial.
     ILin=16 X=1.280D+02 Y=-1.276197504197D+03 DE= 4.80D-07
     Reject polynomial minimum 8.685D+01.
 The polynomial fit failed.  Using point  1.
     An  expanding polynomial of degree 16 produced  0.0000
 Search did not lower the energy significantly.
 No lower point found -- switch to steepest descent.
     ILin= 1 X=0.000D+00 Y=-1.276197504677D+03 DE= 0.00D+00
     ILin= 2 X=1.000D+00 Y=-1.276197504675D+03 DE= 2.26D-09
     ILin= 3 X=7.071D-01 Y=-1.276197504676D+03 DE= 1.20D-09
     ILin= 4 X=5.000D-01 Y=-1.276197504676D+03 DE= 6.40D-10
     ILin= 5 X=3.536D-01 Y=-1.276197504677D+03 DE= 2.97D-10
     ILin= 6 X=2.500D-01 Y=-1.276197504677D+03 DE= 1.66D-10
     ILin= 7 X=1.768D-01 Y=-1.276197504677D+03 DE= 8.00D-11
     ILin= 8 X=1.250D-01 Y=-1.276197504677D+03 DE= 9.37D-11
     ILin= 9 X=8.839D-02 Y=-1.276197504677D+03 DE= 1.20D-10
     ILin=10 X=6.250D-02 Y=-1.276197504677D+03 DE= 1.48D-10
     ILin=11 X=4.419D-02 Y=-1.276197504677D+03 DE= 5.28D-11
     ILin=12 X=3.125D-02 Y=-1.276197504677D+03 DE= 1.24D-10
     ILin=13 X=2.210D-02 Y=-1.276197504677D+03 DE= 5.91D-11
     ILin=14 X=1.562D-02 Y=-1.276197504677D+03 DE= 1.18D-10
     ILin=15 X=1.105D-02 Y=-1.276197504677D+03 DE= 1.16D-10
     ILin=16 X=7.812D-03 Y=-1.276197504677D+03 DE= 1.19D-10
 The polynomial fit failed.  Using point  1.
     A contracting polynomial of degree 16 produced  0.0000
 Search did not lower the energy significantly.
 No lower point found -- run aborted.
 Error termination via Lnk1e in /global/apps/gaussian/03.e01/l508.exe at Wed Nov 20 18:22:59 2013.
 Job cpu time:  0 days 21 hours 41 minutes 27.7 seconds.
 File lengths (MBytes):  RWF=    100 Int=      0 D2E=      0 Chk=     64 Scr=      1
