 Entering Gaussian System, Link 0=g03
 Initial command:
 ---------------------------------------------
 STEP TRYING TO FIX ERROR E0010-QCNOLOWERPOINT
 ---------------------------------------------
 Redundant internal coordinates taken from checkpoint file:
 RuAMes246n.chk
 Charge =  0 Multiplicity = 1
 H,0,-1.4351146549,-0.4645052141,-3.3510898893
 C,0,-1.1095914806,-0.0320279457,-2.3654728534
 H,0,-1.4202146902,1.0390172685,-2.2407188814
 Ru,0,0.0101324878,-1.064251681,-1.2990310546
 Cl,0,-1.6948039666,-2.8733414365,-0.8202190431
 Cl,0,1.9859399194,0.0034662024,-2.5204269552
 C,0,-0.0173921805,-0.006114006,0.353875676
 N,0,-1.0949131197,0.5491576659,1.062274991
 C,0,-2.5110006922,0.492146144,0.680820895
 C,0,-3.3998985965,-0.5366847936,1.1196562546
 C,0,-4.7627127191,-0.5287975352,0.74224359
 H,0,-5.4297555835,-1.3439588054,1.0893089966
 C,0,-5.2434415625,0.5201355398,-0.0688718584
 C,0,-4.4148789805,1.5859306997,-0.4905630739
 H,0,-4.8383318771,2.4012180033,-1.1088626936
 C,0,-3.0626464981,1.5645849344,-0.087522891
 N,0,-2.1088266987,2.7843360484,-0.4753333846
 O,0,-1.739850259,2.8765743372,-1.7454334679
 O,0,-1.7885360294,3.6035277889,0.5116294469
 N,0,-6.7838731268,0.5324495263,-0.506728228
 O,0,-7.5586723944,-0.3866307548,0.0427559702
 O,0,-7.1345329364,1.4651658093,-1.3765143021
 N,0,-2.9545028928,-1.7383007925,2.1221858318
 O,0,-1.708183729,-1.7636350542,2.5503241122
 O,0,-3.9205217355,-2.5782224094,2.4382773333
 C,0,-0.7107239483,1.1977861453,2.3786133998
 H,0,-1.328299842,0.7735295208,3.2008661193
 H,0,-0.8768652033,2.2992117755,2.3134647905
 C,0,0.7903747544,0.8127730179,2.5254485244
 H,0,0.950873183,0.0562324754,3.3277279747
 H,0,1.4337283852,1.694811195,2.7300786986
 N,0,1.1238126335,0.1864800016,1.1795716531
 C,0,2.5204639656,0.1677781635,0.7377084361
 C,0,3.281854623,1.3782458018,0.6472374364
 C,0,4.6685035834,1.3677873313,0.3846990445
 H,0,5.2361785142,2.3174297382,0.3137314093
 C,0,5.3184315789,0.1285999653,0.198912281
 C,0,4.6118608434,-1.0925000969,0.2189606322
 H,0,5.1385496698,-2.0489389568,0.0299843778
 C,0,3.2217901961,-1.0535602606,0.4763634119
 N,0,2.4654282933,-2.4257002324,0.4226675562
 O,0,1.3764947878,-2.5384991288,-0.3742387728
 O,0,3.0113179502,-3.4571529853,1.0255344365
 N,0,6.8942141655,0.1098144936,-0.0809459262
 O,0,7.496163022,1.2869568915,-0.0925203827
 O,0,7.4412418059,-1.0788523369,-0.2695439156
 N,0,2.5800752849,2.8286465637,0.6750008711
 O,0,3.3459316473,3.8292842949,1.070396584
 O,0,1.3339294133,2.9047615963,0.2368767693
 Recover connectivity data from disk.
                    Isotopes and Nuclear Properties:
 (Nuclear quadrupole moments (NQMom) in fm**2, nuclear magnetic moments (NMagM)
  in nuclear magnetons)

  Atom         1           2           3           4           5           6           7           8           9          10
 IAtWgt=           1          12           1         102          35          35          12          14          12          12
 AtmWgt=   1.0078250  12.0000000   1.0078250 101.9037000  34.9688527  34.9688527  12.0000000  14.0030740  12.0000000  12.0000000
 NucSpn=           1           0           1           0           3           3           0           2           0           0
 AtZEff=  -1.0000000  -3.6000000  -1.0000000-221.7600000-204.0000000-204.0000000  -3.6000000  -4.5500000  -3.6000000  -3.6000000
 NQMom=    0.0000000   0.0000000   0.0000000   0.0000000  -8.1650000  -8.1650000   0.0000000   2.0440000   0.0000000   0.0000000
 NMagM=    2.7928460   0.0000000   2.7928460   0.0000000   0.8218740   0.8218740   0.0000000   0.4037610   0.0000000   0.0000000

  Atom        11          12          13          14          15          16          17          18          19          20
 IAtWgt=          12           1          12          12           1          12          14          16          16          14
 AtmWgt=  12.0000000   1.0078250  12.0000000  12.0000000   1.0078250  12.0000000  14.0030740  15.9949146  15.9949146  14.0030740
 NucSpn=           0           1           0           0           1           0           2           0           0           2
 AtZEff=  -3.6000000  -1.0000000  -3.6000000  -3.6000000  -1.0000000  -3.6000000  -4.5500000  -5.6000000  -5.6000000  -4.5500000
 NQMom=    0.0000000   0.0000000   0.0000000   0.0000000   0.0000000   0.0000000   2.0440000   0.0000000   0.0000000   2.0440000
 NMagM=    0.0000000   2.7928460   0.0000000   0.0000000   2.7928460   0.0000000   0.4037610   0.0000000   0.0000000   0.4037610

  Atom        21          22          23          24          25          26          27          28          29          30
 IAtWgt=          16          16          14          16          16          12           1           1          12           1
 AtmWgt=  15.9949146  15.9949146  14.0030740  15.9949146  15.9949146  12.0000000   1.0078250   1.0078250  12.0000000   1.0078250
 NucSpn=           0           0           2           0           0           0           1           1           0           1
 AtZEff=  -5.6000000  -5.6000000  -4.5500000  -5.6000000  -5.6000000  -3.6000000  -1.0000000  -1.0000000  -3.6000000  -1.0000000
 NQMom=    0.0000000   0.0000000   2.0440000   0.0000000   0.0000000   0.0000000   0.0000000   0.0000000   0.0000000   0.0000000
 NMagM=    0.0000000   0.0000000   0.4037610   0.0000000   0.0000000   0.0000000   2.7928460   2.7928460   0.0000000   2.7928460

  Atom        31          32          33          34          35          36          37          38          39          40
 IAtWgt=           1          14          12          12          12           1          12          12           1          12
 AtmWgt=   1.0078250  14.0030740  12.0000000  12.0000000  12.0000000   1.0078250  12.0000000  12.0000000   1.0078250  12.0000000
 NucSpn=           1           2           0           0           0           1           0           0           1           0
 AtZEff=  -1.0000000  -4.5500000  -3.6000000  -3.6000000  -3.6000000  -1.0000000  -3.6000000  -3.6000000  -1.0000000  -3.6000000
 NQMom=    0.0000000   2.0440000   0.0000000   0.0000000   0.0000000   0.0000000   0.0000000   0.0000000   0.0000000   0.0000000
 NMagM=    2.7928460   0.4037610   0.0000000   0.0000000   0.0000000   2.7928460   0.0000000   0.0000000   2.7928460   0.0000000

  Atom        41          42          43          44          45          46          47          48          49
 IAtWgt=          14          16          16          14          16          16          14          16          16
 AtmWgt=  14.0030740  15.9949146  15.9949146  14.0030740  15.9949146  15.9949146  14.0030740  15.9949146  15.9949146
 NucSpn=           2           0           0           2           0           0           2           0           0
 AtZEff=  -4.5500000  -5.6000000  -5.6000000  -4.5500000  -5.6000000  -5.6000000  -4.5500000  -5.6000000  -5.6000000
 NQMom=    2.0440000   0.0000000   0.0000000   2.0440000   0.0000000   0.0000000   2.0440000   0.0000000   0.0000000
 NMagM=    0.4037610   0.0000000   0.0000000   0.4037610   0.0000000   0.0000000   0.4037610   0.0000000   0.0000000
 Leave Link  101 at Thu Dec  5 06:08:03 2013, MaxMem= 3758096384 cpu:       0.4
 (Enter /global/apps/gaussian/03.e01/l202.exe)
                          Input orientation:                          
 ---------------------------------------------------------------------
 Center     Atomic     Atomic              Coordinates (Angstroms)
 Number     Number      Type              X           Y           Z
 ---------------------------------------------------------------------
    1          1             0       -1.435115   -0.464505   -3.351090
    2          6             0       -1.109591   -0.032028   -2.365473
    3          1             0       -1.420215    1.039017   -2.240719
    4         44             0        0.010132   -1.064252   -1.299031
    5         17             0       -1.694804   -2.873341   -0.820219
    6         17             0        1.985940    0.003466   -2.520427
    7          6             0       -0.017392   -0.006114    0.353876
    8          7             0       -1.094913    0.549158    1.062275
    9          6             0       -2.511001    0.492146    0.680821
   10          6             0       -3.399899   -0.536685    1.119656
   11          6             0       -4.762713   -0.528798    0.742244
   12          1             0       -5.429756   -1.343959    1.089309
   13          6             0       -5.243442    0.520136   -0.068872
   14          6             0       -4.414879    1.585931   -0.490563
   15          1             0       -4.838332    2.401218   -1.108863
   16          6             0       -3.062646    1.564585   -0.087523
   17          7             0       -2.108827    2.784336   -0.475333
   18          8             0       -1.739850    2.876574   -1.745433
   19          8             0       -1.788536    3.603528    0.511629
   20          7             0       -6.783873    0.532450   -0.506728
   21          8             0       -7.558672   -0.386631    0.042756
   22          8             0       -7.134533    1.465166   -1.376514
   23          7             0       -2.954503   -1.738301    2.122186
   24          8             0       -1.708184   -1.763635    2.550324
   25          8             0       -3.920522   -2.578222    2.438277
   26          6             0       -0.710724    1.197786    2.378613
   27          1             0       -1.328300    0.773530    3.200866
   28          1             0       -0.876865    2.299212    2.313465
   29          6             0        0.790375    0.812773    2.525449
   30          1             0        0.950873    0.056232    3.327728
   31          1             0        1.433728    1.694811    2.730079
   32          7             0        1.123813    0.186480    1.179572
   33          6             0        2.520464    0.167778    0.737708
   34          6             0        3.281855    1.378246    0.647237
   35          6             0        4.668504    1.367787    0.384699
   36          1             0        5.236179    2.317430    0.313731
   37          6             0        5.318432    0.128600    0.198912
   38          6             0        4.611861   -1.092500    0.218961
   39          1             0        5.138550   -2.048939    0.029984
   40          6             0        3.221790   -1.053560    0.476363
   41          7             0        2.465428   -2.425700    0.422668
   42          8             0        1.376495   -2.538499   -0.374239
   43          8             0        3.011318   -3.457153    1.025534
   44          7             0        6.894214    0.109814   -0.080946
   45          8             0        7.496163    1.286957   -0.092520
   46          8             0        7.441242   -1.078852   -0.269544
   47          7             0        2.580075    2.828647    0.675001
   48          8             0        3.345932    3.829284    1.070397
   49          8             0        1.333929    2.904762    0.236877
 ---------------------------------------------------------------------
                    Distance matrix (angstroms):
                    1          2          3          4          5
     1  H    0.000000
     2  C    1.124474   0.000000
     3  H    1.869151   1.122136   0.000000
     4  Ru   2.580578   1.859184   2.712270   0.000000
     5  Cl   3.503604   3.286844   4.171303   2.531576   0.000000
     6  Cl   3.551424   3.099611   3.571063   2.556491   4.971379
     7  C    3.993348   2.930602   3.129238   1.962782   3.523237
     8  N    4.541039   3.476701   3.354930   3.065939   3.951854
     9  C    4.281240   3.393908   3.166114   3.563467   3.774361
    10  C    4.883969   4.200751   4.206436   4.213868   3.482876
    11  C    5.275644   4.821823   4.746409   5.218579   4.165362
    12  H    6.037196   5.685112   5.730975   5.947671   4.464882
    13  C    5.123068   4.761090   4.427553   5.623488   4.967196
    14  C    4.611496   4.130133   3.511435   5.220902   5.233793
    15  H    4.982152   4.626366   3.849703   5.962655   6.147037
    16  C    4.173360   3.398919   2.758633   4.221434   4.701386
    17  N    4.390767   3.535959   2.576220   4.469910   5.683280
    18  O    3.719383   3.040007   1.929790   4.334954   5.824052
    19  O    5.620890   4.685718   3.779920   5.319950   6.613051
    20  N    6.139506   5.997586   5.659697   7.023938   6.131583
    21  O    7.001587   6.893182   6.702790   7.716629   6.427551
    22  O    6.332926   6.286457   5.794988   7.579591   6.980169
    23  N    5.821327   5.143359   5.394671   4.576913   3.396013
    24  O    6.048884   5.246126   5.558046   4.273088   3.548547
    25  O    6.645436   6.120494   6.420978   5.631130   3.957109
    26  C    6.009780   4.917102   4.676197   4.377387   5.270201
    27  H    6.668753   5.628578   5.448833   5.041618   5.440875
    28  H    6.327476   5.232714   4.756460   5.014955   6.102811
    29  C    6.412328   5.314572   5.258730   4.331125   5.563906
    30  H    7.111309   6.055232   6.131519   4.852564   5.726035
    31  H    7.062119   5.951058   5.769219   5.086529   6.577260
    32  N    5.243928   4.195614   4.347100   2.991335   4.615871
    33  C    5.724042   4.779849   5.015878   3.459475   5.426235
    34  C    6.452298   5.509092   5.528546   4.523043   6.707947
    35  C    7.386987   6.550520   6.638780   5.518168   7.741491
    36  H    8.104087   7.277835   7.243419   6.430267   8.733182
    37  C    7.652756   6.922525   7.224266   5.643117   7.696477
    38  C    7.050216   6.367018   6.854147   4.845720   6.635157
    39  H    7.560103   6.988949   7.596641   5.388558   6.935215
    40  C    6.056661   5.280192   5.771449   3.669725   5.400521
    41  N    5.770768   5.126808   5.847745   3.293367   4.364938
    42  O    4.590015   4.053151   4.909578   2.212599   3.121521
    43  O    6.919649   6.341317   7.107914   4.487393   5.088735
    44  N    8.966683   8.324667   8.640472   7.088917   9.122334
    45  O    9.667141   8.998058   9.174858   7.938797  10.114915
    46  O    9.416106   8.865975   9.321819   7.502096   9.326884
    47  N    6.570845   5.571497   5.263698   5.065182   7.281685
    48  O    7.800293   6.823974   6.439350   6.378749   8.597013
    49  O    5.647395   4.622526   4.147866   4.456963   6.608869
                    6          7          8          9         10
     6  Cl   0.000000
     7  C    3.503576   0.000000
     8  N    4.756594   1.403997   0.000000
     9  C    5.541595   2.563833   1.467672   0.000000
    10  C    6.522977   3.508458   2.548589   1.428709   0.000000
    11  C    7.514828   4.789791   3.836295   2.473117   1.414130
    12  H    8.356931   5.623555   4.730273   3.472359   2.184704
    13  C    7.651211   5.269464   4.300073   2.833559   2.434773
    14  C    6.898915   4.752428   3.808986   2.488626   2.851050
    15  H    7.369696   5.583575   4.707138   3.501998   3.958113
    16  C    5.817589   3.454780   2.495016   1.429962   2.446703
    17  N    5.355629   3.584452   2.896253   2.598571   3.903849
    18  O    4.768320   3.960284   3.703517   3.488106   4.755506
    19  O    6.033281   4.023848   3.180173   3.198637   4.484144
    20  N    9.013569   6.842219   5.901383   4.435013   3.903775
    21  O    9.890486   7.557281   6.610242   5.163174   4.298561
    22  O    9.307423   7.470784   6.577520   5.153295   4.917903
    23  N    6.999684   3.841095   3.132723   2.692419   1.627060
    24  O    6.517800   3.282079   2.817694   3.037780   2.532611
    25  O    8.132660   5.118095   4.433729   3.808223   2.485495
    26  C    5.718303   2.455534   1.516927   2.573213   3.438753
    27  H    6.656604   3.229811   2.162957   2.797961   3.215528
    28  H    6.068988   3.145347   2.162339   2.932816   3.979094
    29  C    5.248353   2.457395   2.400975   3.795330   4.621221
    30  H    5.939281   3.128134   3.092005   4.379579   4.914911
    31  H    5.543771   3.262704   3.238537   4.605079   5.562103
    32  N    3.803518   1.421694   2.251230   3.681583   4.581541
    33  C    3.305777   2.572602   3.649897   5.042230   5.974349
    34  C    3.688294   3.589922   4.473895   5.860330   6.966776
    35  C    4.182975   4.883254   5.860566   7.238765   8.322637
    36  H    4.893969   5.744604   6.615877   7.967760   9.131118
    37  C    4.303018   5.339773   6.484848   7.852669   8.792022
    38  C    3.949791   4.756934   5.997790   7.311606   8.081366
    39  H    4.544878   5.555338   6.831675   8.086799   8.739531
    40  C    3.409602   3.406530   4.641759   5.941035   6.672912
    41  N    3.846110   3.467496   4.683472   5.774540   6.201309
    42  O    3.382179   2.980947   4.207737   5.040891   5.390076
    43  O    5.059756   4.640461   5.736986   6.797926   7.045686
    44  N    5.482110   6.926241   8.082458   9.443756  10.384034
    45  O    6.156674   7.637068   8.699683  10.068421  11.113919
    46  O    5.999851   7.561127   8.791479  10.120196  10.943224
    47  N    4.306437   3.858215   4.341842   5.601636   6.876283
    48  O    5.420376   5.151275   5.520906   6.752179   8.035567
    49  O    4.055287   3.211379   3.482733   4.560843   5.918782
                   11         12         13         14         15
    11  C    0.000000
    12  H    1.109003   0.000000
    13  C    1.410415   2.202486   0.000000
    14  C    2.472423   3.479975   1.414305   0.000000
    15  H    3.466598   4.382704   2.187274   1.107384   0.000000
    16  C    2.821522   3.930365   2.418076   1.411180   2.212724
    17  N    4.416159   5.524445   3.888139   2.598901   2.828133
    18  O    5.188718   6.282043   4.542996   3.224320   3.198714
    19  O    5.096570   6.170074   4.666976   3.460168   3.656884
    20  N    2.602166   2.811028   1.601499   2.592724   2.764054
    21  O    2.885634   2.558132   2.488972   3.749515   4.061844
    22  O    3.753739   4.108252   2.485807   2.862868   2.494067
    23  N    2.576191   2.710944   3.891081   4.473217   5.578898
    24  O    3.758208   4.020049   4.957201   5.271886   6.366591
    25  O    2.790333   2.370846   4.199492   5.114945   6.182184
    26  C    4.698660   5.512897   5.195664   4.701446   5.536053
    27  H    4.419963   5.075861   5.107223   4.879920   5.791671
    28  H    5.056301   5.958193   5.282767   4.570436   5.236024
    29  C    5.984681   6.738250   6.574426   6.065374   6.885762
    30  H    6.298576   6.905322   7.079663   6.760963   7.661409
    31  H    6.876904   7.683337   7.334752   6.677619   7.387504
    32  N    5.945928   6.730501   6.497066   5.951883   6.759376
    33  C    7.316413   8.100306   7.813639   7.184622   7.908853
    34  C    8.268065   9.137723   8.598246   7.783150   8.370650
    35  C    9.626667  10.479737   9.958459   9.128062   9.678772
    36  H   10.404925  11.303514  10.639506   9.712100  10.174800
    37  C   10.117156  10.885071  10.572520   9.865927  10.489753
    38  C    9.406073  10.082400   9.990517   9.442428  10.162447
    39  H   10.042566  10.644634  10.695591  10.234806  10.983580
    40  C    8.006145   8.678092   8.627511   8.137603   8.911453
    41  N    7.479732   7.996781   8.267178   8.016595   8.887611
    42  O    6.555555   7.063564   7.298771   7.110869   7.972738
    43  O    8.312104   8.701803   9.228088   9.103826  10.024628
    44  N   11.703393  12.464477  12.144595  11.412375  11.998324
    45  O   12.420702  13.243784  12.762684  11.921441  12.426355
    46  O   12.258172  12.945244  12.786642  12.153910  12.790750
    47  N    8.074248   9.041000   8.190848   7.199463   7.641834
    48  O    9.211443  10.187025   9.275006   8.227965   8.588988
    49  O    7.015253   8.032789   7.002980   5.942834   6.337301
                   16         17         18         19         20
    16  C    0.000000
    17  N    1.596234   0.000000
    18  O    2.493947   1.325823   0.000000
    19  O    2.477827   1.322028   2.371743   0.000000
    20  N    3.884400   5.189223   5.698375   5.951636   0.000000
    21  O    4.902904   6.326473   6.906868   7.031051   1.321724
    22  O    4.272194   5.273524   5.588450   6.059485   1.322668
    23  N    3.975369   5.283608   6.142551   5.699869   5.170258
    24  O    4.457561   5.477149   6.323455   5.741879   6.354541
    25  O    4.927319   6.366192   7.212044   6.816991   5.152487
    26  C    3.427522   3.552020   4.570032   3.230310   6.756553
    27  H    3.800951   4.262277   5.390552   3.930992   6.600580
    28  H    3.328973   3.087146   4.189600   2.403954   6.779947
    29  C    4.715783   4.614880   5.376035   4.300530   8.163450
    30  H    5.481551   5.591743   6.397756   5.293211   8.646163
    31  H    5.307846   4.900146   5.612341   4.352896   8.908253
    32  N    4.585972   4.465145   4.898247   4.539178   8.092886
    33  C    5.814052   5.454189   5.626175   5.515702   9.394269
    34  C    6.389624   5.683019   5.760849   5.538875  10.166901
    35  C    7.748058   6.976996   6.919603   6.834326  11.517351
    36  H    8.342558   7.402008   7.295052   7.144216  12.179530
    37  C    8.508030   7.916546   7.819922   7.917190  12.129584
    38  C    8.127244   7.789708   7.743167   7.943766  11.533856
    39  H    8.962755   8.725844   8.644372   8.953596  12.210479
    40  C    6.831310   6.637066   6.708220   6.840547  10.178172
    41  N    6.836833   6.991044   7.106275   7.379412   9.755204
    42  O    6.051734   6.363196   6.396468   6.966109   8.720085
    43  O    7.959258   8.211253   8.388562   8.553123  10.686932
    44  N   10.062578   9.400178   9.218056   9.378024  13.691237
    45  O   10.562460   9.728541   9.516457   9.588385  14.305953
    46  O   10.832939  10.303901  10.105251  10.379004  14.318046
    47  N    5.832633   4.828150   4.952025   4.439808   9.713523
    48  O    6.894890   5.765031   5.890818   5.169714  10.768908
    49  O    4.607731   3.517714   3.657659   3.211472   8.489966
                   21         22         23         24         25
    21  O    0.000000
    22  O    2.371365   0.000000
    23  N    5.229667   6.322638   0.000000
    24  O    6.512469   7.435757   1.318050   0.000000
    25  O    4.876242   6.421175   1.318550   2.360201   0.000000
    26  C    7.406822   7.445656   3.704174   3.129605   4.956269
    27  H    7.080761   7.425841   3.180783   2.646643   4.305275
    28  H    7.550922   7.312317   4.544741   4.153783   5.750547
    29  C    8.792549   8.857488   4.549144   3.589052   5.805084
    30  H    9.132335   9.459851   4.463815   3.314643   5.609096
    31  H    9.613396   9.504312   5.604674   4.675978   6.856527
    32  N    8.775326   8.738929   4.607164   3.701637   5.888398
    33  C   10.118267   9.968556   5.960300   4.989729   7.205467
    34  C   10.999873  10.611515   7.126043   6.196260   8.410451
    35  C   12.357133  11.934112   8.412899   7.426835   9.672618
    36  H   13.080274  12.514703   9.317012   8.359522  10.598409
    37  C   12.888353  12.623181   8.696306   7.647419   9.884326
    38  C   12.192259  12.127034   7.828741   6.769685   8.940598
    39  H   12.805580  12.843509   8.364885   7.301457   9.388652
    40  C   10.809773  10.818067   6.428390   5.395383   7.562164
    41  N   10.236441  10.513570   5.721585   4.731204   6.698231
    42  O    9.200089   9.458937   5.062607   4.320732   5.997517
    43  O   11.050731  11.529846   6.304611   5.240867   7.128728
    44  N   14.461939  14.153488  10.259949   9.188833  11.424996
    45  O   15.148177  14.688011  11.102861  10.050410  12.316056
    46  O   15.019125  14.837474  10.687692   9.598571  11.775826
    47  N   10.655137  10.022046   7.320035   6.557061   8.637195
    48  O   11.736285  11.018919   8.473473   7.682123   9.784099
    49  O    9.484161   8.740156   6.595686   6.033276   7.906866
                   26         27         28         29         30
    26  C    0.000000
    27  H    1.112427   0.000000
    28  H    1.115789   1.821807   0.000000
    29  C    1.556629   2.224075   2.243686   0.000000
    30  H    2.228198   2.392747   3.065993   1.114345   0.000000
    31  H    2.229179   2.949441   2.424399   1.110751   1.809772
    32  N    2.413704   3.231581   3.122829   1.521449   2.159039
    33  C    3.767501   4.609454   4.309044   2.570066   3.030554
    34  C    4.355561   5.304736   4.573778   3.170948   3.790280
    35  C    5.739398   6.651736   5.944645   4.464385   4.919591
    36  H    6.393981   7.335636   6.431840   5.188531   5.706227
    37  C    6.499613   7.321660   6.896709   5.136552   5.373108
    38  C    6.183803   6.903574   6.783566   4.853216   4.938305
    39  H    7.090225   7.735694   7.765688   5.772639   5.730924
    40  C    4.914446   5.609322   5.604908   3.686968   3.810378
    41  N    5.200319   5.687340   6.088582   4.208943   4.110139
    42  O    5.088664   5.573762   5.975352   4.470207   4.540743
    43  O    6.111700   6.439179   7.064876   5.041289   4.678611
    44  N    8.066486   8.878094   8.421184   6.674152   6.851659
    45  O    8.571315   9.432982   8.770463   7.214306   7.486895
    46  O    8.868504   9.611448   9.342064   7.458167   7.506908
    47  N    4.048625   5.087131   3.862033   3.269699   4.168638
    48  O    5.009258   5.977038   4.660295   4.212765   5.006772
    49  O    3.417808   4.518279   3.092979   3.147924   4.220688
                   31         32         33         34         35
    31  H    0.000000
    32  N    2.185219   0.000000
    33  C    2.735391   1.465001   0.000000
    34  C    2.802501   2.522069   1.432876   0.000000
    35  C    4.008930   3.819966   2.485701   1.411322   0.000000
    36  H    4.548078   4.711919   3.489393   2.193781   1.108653
    37  C    4.893949   4.308117   2.849642   2.431102   1.411562
    38  C    4.916843   3.837322   2.496266   2.838472   2.466514
    39  H    5.918773   4.736746   3.502725   3.946380   3.467100
    40  C    3.978686   2.536476   1.432420   2.438542   2.822110
    41  N    4.833960   3.032544   2.613123   3.897049   4.386973
    42  O    5.249855   3.147012   3.141501   4.473779   5.164531
    43  O    5.651283   4.106393   3.669320   4.857713   5.141691
    44  N    6.342790   5.906972   4.450084   3.897218   2.598674
    45  O    6.699741   6.590608   5.167148   4.279716   2.868785
    46  O    7.265065   6.603856   5.175200   4.917146   3.755284
    47  N    2.612095   3.058813   2.662275   1.611499   2.565135
    48  O    3.311652   4.268461   3.768117   2.488124   2.877211
    49  O    2.773084   2.884766   3.024859   2.508597   3.674714
                   36         37         38         39         40
    36  H    0.000000
    37  C    2.193382   0.000000
    38  C    3.467907   1.410932   0.000000
    39  H    4.376668   2.191477   1.108101   0.000000
    40  C    3.930367   2.422888   1.414238   2.205448   0.000000
    41  N    5.494197   3.835902   2.534974   2.727953   1.567716
    42  O    6.241034   4.793828   3.593103   3.815249   2.516681
    43  O    6.229163   4.343236   2.967134   2.738485   2.474499
    44  N    2.788981   1.600551   2.597045   2.784758   3.892394
    45  O    2.516832   2.483795   3.752071   4.086753   4.906314
    46  O    4.091118   2.486708   2.871275   2.516580   4.284949
    47  N    2.728872   3.874985   4.439765   5.545510   3.939897
    48  O    2.535997   4.283142   5.152813   6.232932   4.920412
    49  O    3.946950   4.856416   5.169454   6.249567   4.392002
                   41         42         43         44         45
    41  N    0.000000
    42  O    1.354090   0.000000
    43  O    1.313522   2.340072   0.000000
    44  N    5.128022   6.127382   5.387433   0.000000
    45  O    6.273558   7.222452   6.623478   1.322173   0.000000
    46  O    5.201142   6.238805   5.192087   1.322020   2.373059
    47  N    5.261651   5.599622   6.310319   5.155123   5.209013
    48  O    6.349777   6.820141   7.294254   5.267860   5.004021
    49  O    5.452397   5.477624   6.626430   6.231333   6.379570
                   46         47         48         49
    46  O    0.000000
    47  N    6.308062   0.000000
    48  O    6.531218   1.320663   0.000000
    49  O    7.309234   1.323112   2.365935   0.000000
 Stoichiometry    C16H10Cl2N8O12Ru
 Framework group  C1[X(C16H10Cl2N8O12Ru)]
 Deg. of freedom   141
 Full point group                 C1
 Largest Abelian subgroup         C1      NOp   1
 Largest concise Abelian subgroup C1      NOp   1
                         Standard orientation:                         
 ---------------------------------------------------------------------
 Center     Atomic     Atomic              Coordinates (Angstroms)
 Number     Number      Type              X           Y           Z
 ---------------------------------------------------------------------
    1          1             0       -1.435115   -0.464505   -3.351090
    2          6             0       -1.109591   -0.032028   -2.365473
    3          1             0       -1.420215    1.039017   -2.240719
    4         44             0        0.010132   -1.064252   -1.299031
    5         17             0       -1.694804   -2.873341   -0.820219
    6         17             0        1.985940    0.003466   -2.520427
    7          6             0       -0.017392   -0.006114    0.353876
    8          7             0       -1.094913    0.549158    1.062275
    9          6             0       -2.511001    0.492146    0.680821
   10          6             0       -3.399899   -0.536685    1.119656
   11          6             0       -4.762713   -0.528798    0.742244
   12          1             0       -5.429756   -1.343959    1.089309
   13          6             0       -5.243442    0.520136   -0.068872
   14          6             0       -4.414879    1.585931   -0.490563
   15          1             0       -4.838332    2.401218   -1.108863
   16          6             0       -3.062646    1.564585   -0.087523
   17          7             0       -2.108827    2.784336   -0.475333
   18          8             0       -1.739850    2.876574   -1.745433
   19          8             0       -1.788536    3.603528    0.511629
   20          7             0       -6.783873    0.532450   -0.506728
   21          8             0       -7.558672   -0.386631    0.042756
   22          8             0       -7.134533    1.465166   -1.376514
   23          7             0       -2.954503   -1.738301    2.122186
   24          8             0       -1.708184   -1.763635    2.550324
   25          8             0       -3.920522   -2.578222    2.438277
   26          6             0       -0.710724    1.197786    2.378613
   27          1             0       -1.328300    0.773530    3.200866
   28          1             0       -0.876865    2.299212    2.313465
   29          6             0        0.790375    0.812773    2.525449
   30          1             0        0.950873    0.056232    3.327728
   31          1             0        1.433728    1.694811    2.730079
   32          7             0        1.123813    0.186480    1.179572
   33          6             0        2.520464    0.167778    0.737708
   34          6             0        3.281855    1.378246    0.647237
   35          6             0        4.668504    1.367787    0.384699
   36          1             0        5.236179    2.317430    0.313731
   37          6             0        5.318432    0.128600    0.198912
   38          6             0        4.611861   -1.092500    0.218961
   39          1             0        5.138550   -2.048939    0.029984
   40          6             0        3.221790   -1.053560    0.476363
   41          7             0        2.465428   -2.425700    0.422668
   42          8             0        1.376495   -2.538499   -0.374239
   43          8             0        3.011318   -3.457153    1.025534
   44          7             0        6.894214    0.109814   -0.080946
   45          8             0        7.496163    1.286957   -0.092520
   46          8             0        7.441242   -1.078852   -0.269544
   47          7             0        2.580075    2.828647    0.675001
   48          8             0        3.345932    3.829284    1.070397
   49          8             0        1.333929    2.904762    0.236877
 ---------------------------------------------------------------------
 Rotational constants (GHZ):      0.1502366      0.0510793      0.0462562
 Leave Link  202 at Thu Dec  5 06:08:17 2013, MaxMem= 3758096384 cpu:       0.5
 (Enter /global/apps/gaussian/03.e01/l301.exe)
 Standard basis: LANL2MB (5D, 7F)
 There are   211 symmetry adapted basis functions of A   symmetry.
 Integral buffers will be    131072 words long.
 Raffenetti 2 integral format.
 Two-electron integral symmetry is turned on.
   211 basis functions,   644 primitive gaussians,   212 cartesian basis functions
   144 alpha electrons      144 beta electrons
       nuclear repulsion energy      4770.5546711431 Hartrees.
 IExCor=2002 DFT=T Ex=O Corr=LYP ExCW=0 ScaHFX=  0.000000
 ScaDFX=  1.000000  1.000000  1.000000  1.000000
 IRadAn=      0 IRanWt=     -1 IRanGd=            0 ICorTp=0
 NAtoms=   49 NActive=   49 NUniq=   49 SFac= 7.50D-01 NAtFMM=   80 NAOKFM=F Big=F
 Leave Link  301 at Thu Dec  5 06:08:31 2013, MaxMem= 3758096384 cpu:       0.2
 (Enter /global/apps/gaussian/03.e01/l302.exe)
 NPDir=0 NMtPBC=     1 NCelOv=     1 NCel=       1 NClECP=     1 NCelD=      1
         NCelK=      1 NCelE2=     1 NClLst=     1 CellRange=     0.0.
 One-electron integrals computed using PRISM.
   1 Symmetry operations used in ECPInt.
 ECPInt:  NShTT=    4186 NPrTT=   38509 LenC2=    3124 LenP2D=   17928.
 LDataN:  DoStor=F MaxTD1= 5 Len=  102
 LDataN:  DoStor=T MaxTD1= 5 Len=  102
 NBasis=   211 RedAO= T  NBF=   211
 NBsUse=   211 1.00D-06 NBFU=   211
 Precomputing XC quadrature grid using
 IXCGrd= 2 IRadAn=           0 IRanWt=          -1 IRanGd=           0.
 Defaulting to unpruned grid for atomic number  44.
 NRdTot=    3201 NPtTot=      417586 NUsed=      440190 NTot=      440222
 NSgBfM=   203   203   203   203.
 Leave Link  302 at Thu Dec  5 06:08:47 2013, MaxMem= 3758096384 cpu:       7.0
 (Enter /global/apps/gaussian/03.e01/l303.exe)
 DipDrv:  MaxL=1.
 Leave Link  303 at Thu Dec  5 06:09:02 2013, MaxMem= 3758096384 cpu:       0.2
 (Enter /global/apps/gaussian/03.e01/l401.exe)
 SCF N**3 symmetry information disabled.
 Skipping rotation of guess because NAtoms(RWF)=   49 differs from NAtoms(Chk)=    0.
 SCF restart from the checkpoint file:
 RuAMes246n.chk
 Guess basis will be translated and rotated to current coordinates.
 Initial guess orbital symmetries:
       Occupied  (A) (A) (A) (A) (A) (A) (A) (A) (A) (A) (A) (A)
                 (A) (A) (A) (A) (A) (A) (A) (A) (A) (A) (A) (A)
                 (A) (A) (A) (A) (A) (A) (A) (A) (A) (A) (A) (A)
                 (A) (A) (A) (A) (A) (A) (A) (A) (A) (A) (A) (A)
                 (A) (A) (A) (A) (A) (A) (A) (A) (A) (A) (A) (A)
                 (A) (A) (A) (A) (A) (A) (A) (A) (A) (A) (A) (A)
                 (A) (A) (A) (A) (A) (A) (A) (A) (A) (A) (A) (A)
                 (A) (A) (A) (A) (A) (A) (A) (A) (A) (A) (A) (A)
                 (A) (A) (A) (A) (A) (A) (A) (A) (A) (A) (A) (A)
                 (A) (A) (A) (A) (A) (A) (A) (A) (A) (A) (A) (A)
                 (A) (A) (A) (A) (A) (A) (A) (A) (A) (A) (A) (A)
                 (A) (A) (A) (A) (A) (A) (A) (A) (A) (A) (A) (A)
       Virtual   (A) (A) (A) (A) (A) (A) (A) (A) (A) (A) (A) (A)
                 (A) (A) (A) (A) (A) (A) (A) (A) (A) (A) (A) (A)
                 (A) (A) (A) (A) (A) (A) (A) (A) (A) (A) (A) (A)
                 (A) (A) (A) (A) (A) (A) (A) (A) (A) (A) (A) (A)
                 (A) (A) (A) (A) (A) (A) (A) (A) (A) (A) (A) (A)
                 (A) (A) (A) (A) (A) (A) (A)
 The electronic state of the initial guess is 1-A.
 Leave Link  401 at Thu Dec  5 06:09:17 2013, MaxMem= 3758096384 cpu:       0.7
 (Enter /global/apps/gaussian/03.e01/l502.exe)
 Closed shell SCF:
 Requested convergence on RMS density matrix=1.00D-04 within   1 cycles.
 Requested convergence on MAX density matrix=1.00D-02.
 Requested convergence on             energy=1.00D-02.
 Virtual orbitals will be shifted by   1.000 hartree.
 No special actions if energy rises.
 Integral symmetry usage will be decided dynamically.
       440189 words used for storage of precomputed grid.
 Keep R1 integrals in memory in canonical form, NReq=   261146821.
 IEnd=    600784 IEndB=    600784 NGot=3758096384 MDV=3502646411
 LenX=3502646411
 Symmetry not used in FoFDir.
 MinBra= 0 MaxBra= 2 Meth= 1.
 IRaf=       0 NMat=   1 IRICut=       1 DoRegI=T DoRafI=F ISym2E= 0 JSym2E=0.

 Cycle   1  Pass 1  IDiag  1:
 Defaulting to unpruned grid for atomic number  44.
 Defaulting to unpruned grid for atomic number  44.
 Defaulting to unpruned grid for atomic number  44.
 Defaulting to unpruned grid for atomic number  44.
 Defaulting to unpruned grid for atomic number  44.
 Defaulting to unpruned grid for atomic number  44.
 Defaulting to unpruned grid for atomic number  44.
 Defaulting to unpruned grid for atomic number  44.
 E= -2031.79302694223    
 Gap=     0.063 Goal=   None    Shift=    1.000
 RMSDP=2.04D-02 MaxDP=4.23D-01              OVMax= 0.00D+00

 >>>>>>>>>> Convergence criterion not met.
 SCF Done:  E(RO-LYP) =  -2031.79302694     A.U. after    2 cycles
             Convg  =    0.2041D-01             -V/T =  2.0321
             S**2   =   0.0000
 KE= 1.968618794975D+03 PE=-1.434724000293D+04 EE= 5.576273509873D+03
 Convergence failure -- run terminated.
 Error termination via Lnk1e in /global/apps/gaussian/03.e01/l502.exe at Thu Dec  5 06:09:35 2013.
 Job cpu time:  0 days  0 hours  2 minutes 15.9 seconds.
 File lengths (MBytes):  RWF=     24 Int=      0 D2E=      0 Chk=     18 Scr=      1
