
                                 *****************
                                 * O   R   C   A *
                                 *****************

                                            #,                                       
                                            ###                                      
                                            ####                                     
                                            #####                                    
                                            ######                                   
                                           ########,                                 
                                     ,,################,,,,,                         
                               ,,#################################,,                 
                          ,,##########################################,,             
                       ,#########################################, ''#####,          
                    ,#############################################,,   '####,        
                  ,##################################################,,,,####,       
                ,###########''''           ''''###############################       
              ,#####''   ,,,,##########,,,,          '''####'''          '####       
            ,##' ,,,,###########################,,,                        '##       
           ' ,,###''''                  '''############,,,                           
         ,,##''                                '''############,,,,        ,,,,,,###''
      ,#''                                            '''#######################'''  
     '                                                          ''''####''''         
             ,#######,   #######,   ,#######,      ##                                
            ,#'     '#,  ##    ##  ,#'     '#,    #''#        ,####,   ,####,        
            ##       ##  ##   ,#'  ##            #'  '#       #'       #'  '#        
            ##       ##  #######   ##           ,######,      #####,   #    #        
            '#,     ,#'  ##    ##  '#,     ,#' ,#      #,     #,   #   #,  ,#        
             '#######'   ##     ##  '#######'  #'      '#     '####' # '####'        



                #########################################################
                #                        -***-                          #
                #          Department of theory and spectroscopy        #
                #                                                       #
                #                      Frank Neese                      #
                #                                                       #
                #     Directorship, Architecture, Infrastructure        #
                #                    SHARK, DRIVERS                     #
                #        Core code/Algorithms in most modules           #
                #                                                       #
                #        Max Planck Institute fuer Kohlenforschung      #
                #                Kaiser Wilhelm Platz 1                 #
                #                 D-45470 Muelheim/Ruhr                 #
                #                      Germany                          #
                #                                                       #
                #                  All rights reserved                  #
                #                        -***-                          #
                #########################################################


                         Program Version 6.0.1  -  RELEASE   -


 With contributions from (in alphabetic order):
[Max-Planck-Institut fuer Kohlenforschung]                               
  Daniel Aravena         : Magnetic Suceptibility                        
  Michael Atanasov       : Ab Initio Ligand Field Theory (pilot matlab implementation)
  Alexander A. Auer      : GIAO ZORA, VPT2 properties, NMR spectrum      
  Ute Becker             : All parallelization in ORCA, NUMFREQ, NUMCALC 
  Giovanni Bistoni       : ED, misc. LED, open-shell LED, HFLD           
  Martin Brehm           : Molecular dynamics                            
  Dmytro Bykov           : pre 5.0 version of the SCF Hessian            
  Marcos Casanova-Páez   : Triplet and SCS-CIS(D). UHF-(DLPNO)-IP/EA/STEOM-CCSD. UHF-CVS-IP/STEOM-CCSD   
  Vijay G. Chilkuri      : MRCI spin determinant printing, contributions to CSF-ICE 
  Pauline Colinet        : FMM embedding                                 
  Dipayan Datta          : RHF DLPNO-CCSD density                        
  Achintya Kumar Dutta   : EOM-CC, STEOM-CC                              
  Nicolas Foglia         : Exact transition moments, OPA infrastructure, MCD improvements    
  Dmitry Ganyushin       : Spin-Orbit,Spin-Spin,Magnetic field MRCI      
  Miquel Garcia-Rates    : C-PCM and meta-GGA Hessian, CCSD/C-PCM, Gaussian charge scheme 
  Tiago L. C. Gouveia    : GS-ROHF, GS-ROCIS                             
  Yang Guo               : DLPNO-NEVPT2, F12-NEVPT2, CIM, IAO-localization        
  Andreas Hansen         : Spin unrestricted coupled pair/coupled cluster methods 
  Ingolf Harden          : AUTO-CI MPn and infrastructure                
  Benjamin Helmich-Paris : MC-RPA, TRAH-(SCF,CASSCF), AVAS, COSX integrals, SCF dyn. polar. 
  Lee Huntington         : MR-EOM, pCC                                   
  Robert Izsak           : Overlap fitted RIJCOSX, COSX-SCS-MP3, EOM     
  Riya Kayal             : Wick's Theorem for AUTO-CI, AUTO-CI UHF-CCSDT 
  Emily Kempfer          : AUTO-CI, RHF CISDT and CCSDT                  
  Christian Kollmar      : KDIIS, OOCD, Brueckner-CCSD(T), CCSD density, CASPT2, CASPT2-K, improved NEVPT2 
  Axel Koslowski         : Symmetry handling                             
  Simone Kossmann        : meta-GGA functionals, TD-DFT gradient, OOMP2, (MP2 Hessian; deprecated post 5.0) 
  Lucas Lang             : DCDCAS                                        
  Marvin Lechner         : AUTO-CI (C++ implementation), FIC-MRCC        
  Spencer Leger          : CASSCF response                               
  Dagmar Lenk            : GEPOL surface, SMD, ORCA-2-JSON               
  Dimitrios Liakos       : Extrapolation schemes; Compound Job, initial MDCI parallelization 
  Dimitrios Manganas     : Further ROCIS development; embedding schemes. LFT, Crystal Embedding 
  Dimitrios Pantazis     : SARC Basis sets                               
  Anastasios Papadopoulos: AUTO-CI, single reference methods and gradients 
  Taras Petrenko         : pre 6.0 DFT Hessian and TD-DFT gradient, (ASA, deprecated), ECA, 1-Electron XAS/XES, NRVS 
  Peter Pinski           : DLPNO-MP2, DLPNO-MP2 Gradient                 
  Christoph Reimann      : Effective Core Potentials                     
  Marius Retegan         : Local ZFS, SOC                                
  Christoph Riplinger    : Optimizer, TS searches, QM/MM, DLPNO-CCSD(T), (RO)-DLPNO pert. Triples 
  Michael Roemelt        : Original ROCIS implementation                 
  Masaaki Saitow         : Open-shell DLPNO-CCSD energy and density      
  Barbara Sandhoefer     : DKH picture change effects                    
  Kantharuban Sivalingam : CASSCF convergence/infrastructure, NEVPT2 and variants, FIC-MRCI 
  Bernardo de Souza      : ESD, SOC TD-DFT                               
  Georgi L. Stoychev     : AutoAux, RI-MP2 NMR, DLPNO-MP2 response, X2C  
  Van Anh Tran           : RI-MP2 g-tensors                              
  Willem Van den Heuvel  : Paramagnetic NMR                              
  Zikuan Wang            : NOTCH, Electric field optimization            
  Frank Wennmohs         : Technical directorship and infrastructure     
  Hang Xu                : AUTO-CI-Response properties                   
                                                                         
[FACCTs GmbH]                                                            
  Markus Bursch, Miquel Garcia-Rates, Christoph Riplinger, Bernardo de Souza, Georgi L. Stoychev 
                                                                 
  APM, Basis sets (HGBS, AHGBS, def-TZVP (Ac-Lr), def2-XVPD (La-Lu)), CI-OPT, improved COSX, DLPNO-Multilevel,           
  DOCKER, DRACO, updates on ESD, GOAT, IRC, LR-CPCM, MBIS, meta-GGA TD-DFT gradient, ML-optimized integration grids, 
  MM, NACMEs, nearIR, NEB, NEB-TS, NL-DFT gradient (VV10), 2- and 3-layer-ONIOM, interface openCOSMO-RS, QMMM,   
  Crystal-QMMM, SF, symmetry and pop. for TD-DFT, r2SCAN hybrids, SOLVATOR                                   
                                                                         
[Other institutions]                                                     
  V. Asgeirsson          : NEB                                           
  Christoph Bannwarth    : sTDA-DFT, sTD-DFT, PBEh-3c, B97-3c, D3        
  Sebastian Ehlert       : rSCAN, r2SCAN, r2SCAN-3c, D4, dhf basis sets  
  Marvin Friede          : D4 for Fr, Ra, Ac-Lr                          
  Lars Goerigk           : TD-DFT with DH, B97 family of functionals     
  Stefan Grimme          : VdW corrections, initial TS optimization, DFT functionals, gCP, sTDA/sTD-DF 
  Waldemar Hujo          : DFT-NL                                        
  H. Jonsson             : NEB                                           
  Holger Kruse           : gCP                                           
  Marcel Mueller         : wB97X-3c, vDZP basis set                      
  Hagen Neugebauer       : wr2SCAN                                       
  Tobias Risthaus        : range-separated hybrid DFT                    
  Lukas Wittmann         : regularized MP2, r2SCAN double-hybrids, wr2SCAN        
                                                                         
We gratefully acknowledge several colleagues who have allowed us to      
interface, adapt or use parts of their codes:                            
  Ed Valeev, F. Pavosevic, A. Kumar             : LibInt (2-el integral package), F12 methods 
  Garnet Chan, S. Sharma, J. Yang, R. Olivares  : DMRG                   
  Ulf Ekstrom                                   : XCFun DFT Library      
  Mihaly Kallay                                 : mrcc  (arbitrary order and MRCC methods)
  Frank Weinhold                                : gennbo (NPA and NBO analysis)           
  Simon Mueller                                 : openCOSMO-RS                            
  Christopher J. Cramer and Donald G. Truhlar   : smd solvation model                     
  S Lehtola, MJT Oliveira, MAL Marques          : LibXC Library                           
  Liviu Ungur et al                             : ANISO software                          


 Your calculation uses the libint2 library for the computation of 2-el integrals
 For citations please refer to: http://libint.valeyev.net

 Your ORCA version has been built with support for libXC version: 6.2.2
 For citations please refer to: https://libxc.gitlab.io

 This ORCA versions uses:
   CBLAS   interface :  Fast vector & matrix operations
   LAPACKE interface :  Fast linear algebra routines
   SCALAPACK package :  Parallel linear algebra routines
   Shared memory     :  Shared parallel matrices
   BLAS/LAPACK       :  OpenBLAS 0.3.27  USE64BITINT DYNAMIC_ARCH NO_AFFINITY SkylakeX SINGLE_THREADED
        Core in use  :  SkylakeX
   Copyright (c) 2011-2014, The OpenBLAS Project


NOTE: MaxCore=1400 MB was set to SCF,MP2,MDCI,CIPSI,MRCI and CIS
      => If you want to overwrite this, your respective input block should be placed after the MaxCore statement
NOTE: MaxCore=1400 MB was set to SCF,MP2,MDCI,CIPSI,MRCI and CIS
      => If you want to overwrite this, your respective input block should be placed after the MaxCore statement
================================================================================

cite the ECPs for Ru [Def2-ECP] as follows:
Ce-Yb(ecp-28): M. Dolg, H. Stoll, H.Preuss, J. Chem. Phys., 1989, 90, 1730-1734.
Y-Cd(ecp-28), Hf-Hg(ecp-46): D. Andrae,U. Haeussermann, M. Dolg, H. Stoll, H. Preuss, Theor. Chim. Acta, 1990, 77, 123-141.
In-Sb(ecp-28), Tl-Bi(ecp-46): B. Metz, H. Stoll, M. Dolg, J. Chem. Phys., 2000, 113, 2563-2569.
Te-Xe(ecp-28), Po-Rn(ecp-46): K. A. Peterson, D. Figgen, E. Goll, H. Stoll, M. Dolg, J. Chem. Phys., 2003, 119, 11113-11123.
Rb(ecp-28), Cs(ecp-46): T. Leininger, A. Nicklass, W. Kuechle, H. Stoll, M. Dolg, A. Bergner, Chem. Phys. Lett., 1996, 255, 274-280.
Sr(ecp-28), Ba(ecp-46): M. Kaupp, P. V. Schleyer, H. Stoll and H. Preuss, J. Chem. Phys., 1991, 94, 1360-1366.
La(ecp-46): M. Dolg, H. Stoll, A. Savin, H. Preuss, Theor. Chim. Acta, 1989, 75, 173-194.
Lu(ecp-28): X. Cao, M. Dolg, J. Chem. Phys., 2001, 115, 7348-7355.

ECP parameters for Ru [Def2-ECP] have been obtained from:
TURBOMOLE (7.0.2)

----- Orbital basis set information -----
Your calculation utilizes the basis: def2-SVP
   F. Weigend and R. Ahlrichs, Phys. Chem. Chem. Phys. 7, 3297 (2005).



################################################################################


                                COMPOUND JOB MainJOB 
Basename: cli48_Compound_0

################################################################################

================================================================================
                                       INPUT FILE
================================================================================
NAME = cli48_Compound_0.inp
|  1> %maxcore 1400
|  2>  %pal nprocs 20 end
|  3>  * xyz 0 1
|  4>      Ru -1.02544900 0.03853400 -0.02005800
|  5>       O 0.96777500 -0.79964200 -0.59364000
|  6>       C 0.05916700 1.47135200 0.40336700
|  7>       H -0.29831700 2.41111600 0.82948300
|  8>       C 1.33093100 -2.17989700 -1.00224400
|  9>       H 2.02505100 -2.06174700 -1.84333400
| 10>       C 1.96838800 -2.90411000 0.16773900
| 11>       H 2.83296500 -2.36978500 0.56867200
| 12>       H 2.30135500 -3.89190500 -0.16802800
| 13>       H 1.23534900 -3.02865600 0.96921000
| 14>       C 0.05887800 -2.83898300 -1.48525300
| 15>       H -0.67727100 -2.89603000 -0.67430900
| 16>       H 0.29473100 -3.86473400 -1.78459600
| 17>       H -0.38090600 -2.30250300 -2.32824500
| 18>       C 1.94450700 0.14223300 -0.41283400
| 19>       C 3.28781500 -0.02066900 -0.72292300
| 20>       H 3.66897000 -0.94382300 -1.13978700
| 21>       C 4.15931800 1.04104200 -0.48340400
| 22>       H 5.21052800 0.91732600 -0.72574200
| 23>       C 3.71025200 2.24558500 0.05838300
| 24>       H 4.40790300 3.05633100 0.23881100
| 25>       C 2.36779100 2.39952300 0.35981500
| 26>       H 1.99452600 3.33182300 0.77422600
| 27>       C 1.45900700 1.35280800 0.12699300
| 28>      Cl -1.44196800 0.38096000 -2.28492300
| 29>      Cl -0.96030000 -1.29067800 1.90033300
| 30>       C -2.53618900 0.87487700 0.51391100
| 31>       O -3.52290700 1.35735400 0.86197500
| 32>  *
| 33> 
| 34>                          ****END OF INPUT****
================================================================================
NOTE: MaxCore=1400 MB was set to SCF,MP2,MDCI,CIPSI,MRCI and CIS
      => If you want to overwrite this, your respective input block should be placed after the MaxCore statement
================================================================================

cite the ECPs for Ru [Def2-ECP] as follows:
Ce-Yb(ecp-28): M. Dolg, H. Stoll, H.Preuss, J. Chem. Phys., 1989, 90, 1730-1734.
Y-Cd(ecp-28), Hf-Hg(ecp-46): D. Andrae,U. Haeussermann, M. Dolg, H. Stoll, H. Preuss, Theor. Chim. Acta, 1990, 77, 123-141.
In-Sb(ecp-28), Tl-Bi(ecp-46): B. Metz, H. Stoll, M. Dolg, J. Chem. Phys., 2000, 113, 2563-2569.
Te-Xe(ecp-28), Po-Rn(ecp-46): K. A. Peterson, D. Figgen, E. Goll, H. Stoll, M. Dolg, J. Chem. Phys., 2003, 119, 11113-11123.
Rb(ecp-28), Cs(ecp-46): T. Leininger, A. Nicklass, W. Kuechle, H. Stoll, M. Dolg, A. Bergner, Chem. Phys. Lett., 1996, 255, 274-280.
Sr(ecp-28), Ba(ecp-46): M. Kaupp, P. V. Schleyer, H. Stoll and H. Preuss, J. Chem. Phys., 1991, 94, 1360-1366.
La(ecp-46): M. Dolg, H. Stoll, A. Savin, H. Preuss, Theor. Chim. Acta, 1989, 75, 173-194.
Lu(ecp-28): X. Cao, M. Dolg, J. Chem. Phys., 2001, 115, 7348-7355.

ECP parameters for Ru [Def2-ECP] have been obtained from:
TURBOMOLE (7.0.2)

----- Orbital basis set information -----
Your calculation utilizes the basis: def2-SVP
   F. Weigend and R. Ahlrichs, Phys. Chem. Chem. Phys. 7, 3297 (2005).



################################################################################


                                COMPOUND JOB  1 
Basename: cli48_Compound_1
NOTE: please remember that MaxCore and PAL settings will be ignored.

################################################################################

================================================================================
                                       INPUT FILE
================================================================================
NAME = cli48_Compound_1.inp
|  1>     ! RKS r2scan-3c Opt MOREAD
|  2>     %geom
|  3>       maxiter 5
|  4>     end
|  5>     %scf
|  6>       maxiter 500
|  7>     end
|  8>     %moinp "restart.gbw"
|  9> 
| 10>                          ****END OF INPUT****
================================================================================
Your calculation utilizes the geometrical counterpoise correction gCP
Please cite in your paper:
H.Kruse, S. Grimme J.Chem.Phys., 136, (2012), 154101 
   

Your calculation utilizes the atom-pairwise dispersion correction
based on EEQ partial charges (D4)


================================================================================

cite the ECPs for Ru [Def2-ECP] as follows:
Ce-Yb(ecp-28): M. Dolg, H. Stoll, H.Preuss, J. Chem. Phys., 1989, 90, 1730-1734.
Y-Cd(ecp-28), Hf-Hg(ecp-46): D. Andrae,U. Haeussermann, M. Dolg, H. Stoll, H. Preuss, Theor. Chim. Acta, 1990, 77, 123-141.
In-Sb(ecp-28), Tl-Bi(ecp-46): B. Metz, H. Stoll, M. Dolg, J. Chem. Phys., 2000, 113, 2563-2569.
Te-Xe(ecp-28), Po-Rn(ecp-46): K. A. Peterson, D. Figgen, E. Goll, H. Stoll, M. Dolg, J. Chem. Phys., 2003, 119, 11113-11123.
Rb(ecp-28), Cs(ecp-46): T. Leininger, A. Nicklass, W. Kuechle, H. Stoll, M. Dolg, A. Bergner, Chem. Phys. Lett., 1996, 255, 274-280.
Sr(ecp-28), Ba(ecp-46): M. Kaupp, P. V. Schleyer, H. Stoll and H. Preuss, J. Chem. Phys., 1991, 94, 1360-1366.
La(ecp-46): M. Dolg, H. Stoll, A. Savin, H. Preuss, Theor. Chim. Acta, 1989, 75, 173-194.
Lu(ecp-28): X. Cao, M. Dolg, J. Chem. Phys., 2001, 115, 7348-7355.
Fr-Lr(ecp-60) K. Eichkorn, F. Weigend, O. Treutler, R. Ahlrichs, Theor. Chem. Acc. 1997, 97, 119.

ECP parameters for Ru [Def2-ECP] have been obtained from:
TURBOMOLE (7.0.2)

----- Orbital basis set information -----
Your calculation utilizes the basis: def2-mTZVPP
   Stefan Grimme, Andreas Hansen, Sebastian Ehlert, and Jan-Michael Mewes 
   J. Chem. Phys. 154, 064103 (2021). DOI: 10.1063/5.0040021

----- AuxJ basis set information -----
Your calculation utilizes the basis: def2-mTZVPP/J
   Stefan Grimme, Andreas Hansen, Sebastian Ehlert, and Jan-Michael Mewes 
   J. Chem. Phys. 154, 000000 (2021). DOI: 10.1063/5.0040021

================================================================================
                                        WARNINGS
                       Please study these warnings very carefully!
================================================================================



WARNING: SCAN, rSCAN, or r2SCAN functional requested.
  ===> : libXC variant has now been activated.




                       *****************************
                       * Geometry Optimization Run *
                       *****************************

Geometry optimization settings:
Update method            Update   .... BFGS
Choice of coordinates    CoordSys .... (2022) Redundant Internals
Initial Hessian          InHess   .... Almloef's Model
Max. no of cycles        MaxIter  .... 5

Convergence Tolerances:
Energy Change            TolE     ....  5.0000e-06 Eh
Max. Gradient            TolMAXG  ....  3.0000e-04 Eh/bohr
RMS Gradient             TolRMSG  ....  1.0000e-04 Eh/bohr
Max. Displacement        TolMAXD  ....  4.0000e-03 bohr
RMS Displacement         TolRMSD  ....  2.0000e-03 bohr
Strict Convergence                .... False

------------------------------------------------------------------------------
                        ORCA OPTIMIZATION COORDINATE SETUP
------------------------------------------------------------------------------

The optimization will be done in redundant internal coordinates (2022)
Making redundant internal coordinates   ...  (2022 redundants) done
Evaluating the initial hessian          ...  (Almloef) done
Evaluating the coordinates              ...  done
Calculating the B-matrix                .... done
Calculating the G-matrix                .... done
Diagonalizing the G-matrix              .... done
Small eigenvalue found = 1.412e-02
The first mode is                       ....   91
The number of degrees of freedom        ....   78

    -----------------------------------------------------------------
                    Redundant Internal Coordinates


    -----------------------------------------------------------------
         Definition                    Initial Value    Approx d2E/dq
    -----------------------------------------------------------------
      1. B(O   1,Ru  0)                  2.2371         0.252090   
      2. B(C   2,Ru  0)                  1.8463         1.182883   
      3. B(H   3,C   2)                  1.0920         0.357427   
      4. B(C   4,O   1)                  1.4846         0.395364   
      5. B(H   5,C   4)                  1.0969         0.351084   
      6. B(C   6,C   4)                  1.5165         0.392605   
      7. B(H   7,C   6)                  1.0926         0.356695   
      8. B(H   8,C   6)                  1.0951         0.353356   
      9. B(H   9,C   6)                  1.0933         0.355815   
     10. B(C  10,C   4)                  1.5119         0.399274   
     11. B(H  11,C  10)                  1.0967         0.351316   
     12. B(H  12,C  10)                  1.0943         0.354513   
     13. B(H  13,C  10)                  1.0917         0.357830   
     14. B(C  14,O   1)                  1.3689         0.604750   
     15. B(C  15,C  14)                  1.3882         0.628884   
     16. B(H  16,C  15)                  1.0823         0.370498   
     17. B(C  17,C  15)                  1.3943         0.614968   
     18. B(H  18,C  17)                  1.0859         0.365629   
     19. B(C  19,C  17)                  1.3950         0.613350   
     20. B(H  20,C  19)                  1.0847         0.367176   
     21. B(C  21,C  19)                  1.3845         0.637617   
     22. B(H  22,C  21)                  1.0864         0.364905   
     23. B(C  23,C  21)                  1.4056         0.590000   
     24. B(C  23,C  14)                  1.4116         0.577134   
     25. B(C  23,C   2)                  1.4318         0.535901   
     26. B(C  23,Ru  0)                  2.8145         0.033740   
     27. B(Cl 24,Ru  0)                  2.3282         0.451934   
     28. B(Cl 25,Ru  0)                  2.3364         0.438405   
     29. B(C  26,Ru  0)                  1.8075         1.364035   
     30. B(O  27,C  26)                  1.1522         1.340553   
     31. A(O   1,Ru  0,Cl 24)           87.9990         0.450864   
     32. A(C  23,Ru  0,Cl 25)          101.4259         0.318304   
     33. A(C   2,Ru  0,Cl 25)          103.6874         0.601928   
     34. A(C  23,Ru  0,Cl 24)           98.0519         0.319887   
     35. A(Cl 24,Ru  0,Cl 25)          152.6536         0.518627   
     36. A(O   1,Ru  0,C  23)           53.2621         0.282137   
     37. A(C   2,Ru  0,Cl 24)          102.3606         0.605469   
     38. A(Cl 25,Ru  0,C  26)           92.5063         0.618740   
     39. A(C   2,Ru  0,C  26)           93.6794         0.725818   
     40. A(C   2,Ru  0,C  23)           26.7529         0.364654   
     41. A(O   1,Ru  0,C   2)           79.9879         0.521026   
     42. A(O   1,Ru  0,C  26)          173.6379         0.535187   
     43. A(Cl 24,Ru  0,C  26)           94.0026         0.622397   
     44. A(C  23,Ru  0,C  26)          120.4184         0.373689   
     45. A(O   1,Ru  0,Cl 25)           88.4381         0.448383   
     46. A(Ru  0,O   1,C   4)          129.5592         0.378496   
     47. A(C   4,O   1,C  14)          120.1011         0.393826   
     48. A(Ru  0,O   1,C  14)          110.1259         0.407728   
     49. A(Ru  0,C   2,C  23)          117.7646         0.535300   
     50. A(H   3,C   2,C  23)          117.8156         0.343914   
     51. A(Ru  0,C   2,H   3)          124.4049         0.441188   
     52. A(C   6,C   4,C  10)          113.0768         0.370664   
     53. A(H   5,C   4,C  10)          109.5363         0.326522   
     54. A(O   1,C   4,C  10)          106.7035         0.368789   
     55. A(H   5,C   4,C   6)          112.1496         0.325618   
     56. A(O   1,C   4,H   5)          105.4084         0.324044   
     57. A(O   1,C   4,C   6)          109.5414         0.367725   
     58. A(C   4,C   6,H   7)          112.4697         0.326469   
     59. A(H   8,C   6,H   9)          109.0184         0.289434   
     60. A(H   7,C   6,H   9)          108.4983         0.289861   
     61. A(C   4,C   6,H   9)          109.7644         0.326336   
     62. A(H   7,C   6,H   8)          108.2417         0.289546   
     63. A(C   4,C   6,H   8)          108.7846         0.325964   
     64. A(H  12,C  10,H  13)          109.6477         0.289839   
     65. A(H  11,C  10,H  13)          109.0339         0.289427   
     66. A(C   4,C  10,H  13)          111.8018         0.327547   
     67. A(H  11,C  10,H  12)          107.3490         0.289005   
     68. A(C   4,C  10,H  12)          108.3423         0.327045   
     69. A(C   4,C  10,H  11)          110.5605         0.326558   
     70. A(O   1,C  14,C  15)          125.4644         0.430401   
     71. A(C  15,C  14,C  23)          121.2561         0.429611   
     72. A(O   1,C  14,C  23)          113.2773         0.423829   
     73. A(H  16,C  15,C  17)          119.7063         0.354125   
     74. A(C  14,C  15,C  17)          118.4956         0.434541   
     75. A(C  14,C  15,H  16)          121.7980         0.355471   
     76. A(H  18,C  17,C  19)          119.7810         0.353175   
     77. A(C  15,C  17,C  19)          121.5332         0.432591   
     78. A(C  15,C  17,H  18)          118.6857         0.353333   
     79. A(C  17,C  19,H  20)          120.1944         0.353428   
     80. A(H  20,C  19,C  21)          120.2871         0.355760   
     81. A(C  17,C  19,C  21)          119.5181         0.435415   
     82. A(H  22,C  21,C  23)          118.6916         0.350747   
     83. A(C  19,C  21,C  23)          120.5350         0.432385   
     84. A(C  19,C  21,H  22)          120.7723         0.355386   
     85. A(C  14,C  23,C  21)          118.6593         0.424726   
     86. A(C   2,C  23,C  21)          122.5813         0.419140   
     87. A(Ru  0,C  23,C  21)          157.9898         0.292909   
     88. A(C   2,C  23,C  14)          118.7564         0.417497   
     89. A(Ru  0,C  23,C  14)           83.2902         0.291894   
     90. A(Ru  0,C  23,C   2)           35.4824         0.288518   
     91. L(Ru  0,C  26,O  27,Cl 25, 2) 182.8042         0.651565   
     92. L(Ru  0,C  26,O  27,Cl 25, 1) 178.2524         0.651565   
     93. D(C   4,O   1,Ru  0,Cl 25)     67.7217         0.001840   
     94. D(C   4,O   1,Ru  0,Cl 24)    -85.1604         0.001840   
     95. D(C  14,O   1,Ru  0,C  23)     -1.3448         0.001840   
     96. D(C  14,O   1,Ru  0,C   2)     -2.6760         0.001840   
     97. D(C   4,O   1,Ru  0,C  26)    166.3614         0.001840   
     98. D(C  14,O   1,Ru  0,Cl 24)    100.2490         0.001840   
     99. D(C   4,O   1,Ru  0,C   2)    171.9146         0.001840   
    100. D(C   4,O   1,Ru  0,C  23)    173.2458         0.001840   
    101. D(C  23,C   2,Ru  0,O   1)      2.3704         0.008185   
    102. D(H   3,C   2,Ru  0,Cl 25)    -93.1668         0.008185   
    103. D(H   3,C   2,Ru  0,C  26)      0.3167         0.008185   
    104. D(H   3,C   2,Ru  0,C  23)    178.5620         0.008185   
    105. D(H   3,C   2,Ru  0,Cl 24)     95.2328         0.008185   
    106. D(C  23,C   2,Ru  0,Cl 24)    -83.3291         0.008185   
    107. D(H   3,C   2,Ru  0,O   1)   -179.0676         0.008185   
    108. D(C  23,C   2,Ru  0,Cl 25)     88.2712         0.008185   
    109. D(C  10,C   4,O   1,Ru  0)     21.4141         0.013353   
    110. D(C   6,C   4,O   1,C  14)     72.8069         0.013353   
    111. D(H   5,C   4,O   1,Ru  0)    137.8283         0.013353   
    112. D(H   5,C   4,O   1,C  14)    -48.0441         0.013353   
    113. D(C   6,C   4,O   1,Ru  0)   -101.3207         0.013353   
    114. D(H   8,C   6,C   4,H   5)    -58.9908         0.012247   
    115. D(H   8,C   6,C   4,O   1)   -175.6628         0.012247   
    116. D(H   7,C   6,C   4,C  10)   -174.6277         0.012247   
    117. D(H   7,C   6,C   4,H   5)     60.9084         0.012247   
    118. D(H   8,C   6,C   4,C  10)     65.4731         0.012247   
    119. D(H   7,C   6,C   4,O   1)    -55.7636         0.012247   
    120. D(H  12,C  10,C   4,O   1)   -179.4321         0.012650   
    121. D(H  11,C  10,C   4,H   5)   -175.6826         0.012650   
    122. D(H  11,C  10,C   4,O   1)    -62.0528         0.012650   
    123. D(H  11,C  10,C   4,C   6)     58.4413         0.012650   
    124. D(H  12,C  10,C   4,C   6)    -58.9380         0.012650   
    125. D(H  12,C  10,C   4,H   5)     66.9380         0.012650   
    126. D(C  23,C  14,O   1,C   4)   -172.8414         0.029503   
    127. D(C  23,C  14,O   1,Ru  0)      2.3396         0.029503   
    128. D(C  15,C  14,O   1,C   4)      7.7089         0.029503   
    129. D(C  15,C  14,O   1,Ru  0)   -177.1101         0.029503   
    130. D(C  17,C  15,C  14,C  23)      0.3071         0.027416   
    131. D(C  17,C  15,C  14,O   1)    179.7158         0.027416   
    132. D(H  16,C  15,C  14,C  23)   -179.8173         0.027416   
    133. D(H  16,C  15,C  14,O   1)     -0.4086         0.027416   
    134. D(C  19,C  17,C  15,H  16)   -179.7022         0.026144   
    135. D(C  19,C  17,C  15,C  14)      0.1761         0.026144   
    136. D(H  18,C  17,C  15,H  16)      0.1826         0.026144   
    137. D(H  18,C  17,C  15,C  14)   -179.9391         0.026144   
    138. D(C  21,C  19,C  17,H  18)    179.7151         0.025998   
    139. D(C  21,C  19,C  17,C  15)     -0.4014         0.025998   
    140. D(H  20,C  19,C  17,H  18)     -0.0841         0.025998   
    141. D(H  20,C  19,C  17,C  15)    179.7994         0.025998   
    142. D(C  23,C  21,C  19,H  20)    179.9414         0.028233   
    143. D(C  23,C  21,C  19,C  17)      0.1423         0.028233   
    144. D(H  22,C  21,C  19,H  20)      0.3399         0.028233   
    145. D(H  22,C  21,C  19,C  17)   -179.4591         0.028233   
    146. D(C  14,C  23,Ru  0,C  26)   -179.6497         0.001507   
    147. D(C  14,C  23,Ru  0,Cl 25)     80.5395         0.001507   
    148. D(C  14,C  23,Ru  0,Cl 24)    -80.1636         0.001507   
    149. D(C  14,C  23,Ru  0,C   2)    178.3196         0.001507   
    150. D(C  14,C  23,Ru  0,O   1)      1.2329         0.001507   
    151. D(C   2,C  23,Ru  0,C  26)      2.0307         0.001507   
    152. D(C   2,C  23,Ru  0,Cl 25)    -97.7801         0.001507   
    153. D(C   2,C  23,Ru  0,Cl 24)    101.5168         0.001507   
    154. D(Ru  0,C  23,C   2,H   3)   -178.6585         0.021278   
    155. D(C   2,C  23,Ru  0,O   1)   -177.0867         0.001507   
    156. D(C  14,C  23,C  21,C  19)      0.3229         0.026018   
    157. D(C   2,C  23,C  21,H  22)      0.5732         0.026018   
    158. D(Ru  0,C  23,C  21,H  22)      4.5166         0.026018   
    159. D(Ru  0,C  23,C  21,C  19)   -175.0930         0.026018   
    160. D(C  21,C  23,C  14,O   1)    179.9704         0.024837   
    161. D(C   2,C  23,C  14,C  15)    178.8304         0.024837   
    162. D(C   2,C  23,C  14,O   1)     -0.6454         0.024837   
    163. D(Ru  0,C  23,C  14,C  15)    177.7179         0.024837   
    164. D(Ru  0,C  23,C  14,O   1)     -1.7579         0.024837   
    165. D(C  21,C  23,C   2,H   3)     -1.2035         0.021278   
    166. D(C   2,C  23,C  21,C  19)   -179.0365         0.026018   
    167. D(C  21,C  23,C   2,Ru  0)    177.4551         0.021278   
    168. D(C  14,C  23,C   2,H   3)    179.4377         0.021278   
    169. D(C  14,C  23,C   2,Ru  0)     -1.9037         0.021278   
    -----------------------------------------------------------------

Number of atoms                         .... 28
Number of degrees of freedom            .... 169


         *************************************************************
         *                GEOMETRY OPTIMIZATION CYCLE   1            *
         *************************************************************
---------------------------------
CARTESIAN COORDINATES (ANGSTROEM)
---------------------------------
  Ru    -1.025449    0.038534   -0.020058
  O      0.967775   -0.799642   -0.593640
  C      0.059167    1.471352    0.403367
  H     -0.298317    2.411116    0.829483
  C      1.330931   -2.179897   -1.002244
  H      2.025051   -2.061747   -1.843334
  C      1.968388   -2.904110    0.167739
  H      2.832965   -2.369785    0.568672
  H      2.301355   -3.891905   -0.168028
  H      1.235349   -3.028656    0.969210
  C      0.058878   -2.838983   -1.485253
  H     -0.677271   -2.896030   -0.674309
  H      0.294731   -3.864734   -1.784596
  H     -0.380906   -2.302503   -2.328245
  C      1.944507    0.142233   -0.412834
  C      3.287815   -0.020669   -0.722923
  H      3.668970   -0.943823   -1.139787
  C      4.159318    1.041042   -0.483404
  H      5.210528    0.917326   -0.725742
  C      3.710252    2.245585    0.058383
  H      4.407903    3.056331    0.238811
  C      2.367791    2.399523    0.359815
  H      1.994526    3.331823    0.774226
  C      1.459007    1.352808    0.126993
  Cl    -1.441968    0.380960   -2.284923
  Cl    -0.960300   -1.290678    1.900333
  C     -2.536189    0.874877    0.513911
  O     -3.522907    1.357354    0.861975

----------------------------
CARTESIAN COORDINATES (A.U.)
----------------------------
  NO LB      ZA    FRAG     MASS         X           Y           Z
   0 Ru   16.0000*   0   101.070   -1.937818    0.072819   -0.037904
   1 O     8.0000    0    15.999    1.828830   -1.511104   -1.121817
   2 C     6.0000    0    12.011    0.111809    2.780452    0.762253
   3 H     1.0000    0     1.008   -0.563737    4.556349    1.567496
   4 C     6.0000    0    12.011    2.515095   -4.119408   -1.893967
   5 H     1.0000    0     1.008    3.826792   -3.896137   -3.483396
   6 C     6.0000    0    12.011    3.719714   -5.487973    0.316981
   7 H     1.0000    0     1.008    5.353528   -4.478245    1.074634
   8 H     1.0000    0     1.008    4.348931   -7.354635   -0.317527
   9 H     1.0000    0     1.008    2.334471   -5.723330    1.831541
  10 C     6.0000    0    12.011    0.111263   -5.364900   -2.806721
  11 H     1.0000    0     1.008   -1.279857   -5.472704   -1.274259
  12 H     1.0000    0     1.008    0.556961   -7.303289   -3.372398
  13 H     1.0000    0     1.008   -0.719808   -4.351100   -4.399745
  14 C     6.0000    0    12.011    3.674586    0.268781   -0.780143
  15 C     6.0000    0    12.011    6.213070   -0.039059   -1.366126
  16 H     1.0000    0     1.008    6.933348   -1.783567   -2.153885
  17 C     6.0000    0    12.011    7.859972    1.967284   -0.913501
  18 H     1.0000    0     1.008    9.846471    1.733495   -1.371454
  19 C     6.0000    0    12.011    7.011360    4.243541    0.110328
  20 H     1.0000    0     1.008    8.329729    5.775629    0.451287
  21 C     6.0000    0    12.011    4.474477    4.534441    0.679952
  22 H     1.0000    0     1.008    3.769108    6.296233    1.463075
  23 C     6.0000    0    12.011    2.757124    2.556437    0.239982
  24 Cl   17.0000    0    35.453   -2.724925    0.719910   -4.317879
  25 Cl   17.0000    0    35.453   -1.814704   -2.439028    3.591109
  26 C     6.0000    0    12.011   -4.792703    1.653278    0.971151
  27 O     8.0000    0    15.999   -6.657329    2.565027    1.628897
* core charge reduced due to ECP

--------------------------------
INTERNAL COORDINATES (ANGSTROEM)
--------------------------------
 Ru     0   0   0     0.000000000000     0.00000000     0.00000000
 O      1   0   0     2.237068892966     0.00000000     0.00000000
 C      1   2   0     1.846252425646    79.98789412     0.00000000
 H      3   1   2     1.092028402290   124.40489615   180.93236943
 C      2   1   3     1.484568413438   129.55922884   171.91461099
 H      5   2   1     1.096902176586   105.40842618   137.82828454
 C      5   2   1     1.516474898080   109.54137383   258.67927899
 H      7   5   2     1.092585861634   112.46969230   304.23640806
 H      7   5   2     1.095146320545   108.78461599   184.33723945
 H      7   5   2     1.093258270254   109.76442177    65.13017979
 C      5   2   1     1.511889838674   106.70348254    21.41412078
 H     11   5   2     1.096722335665   110.56048094   297.94722903
 H     11   5   2     1.094256817780   108.34225246   180.56791406
 H     11   5   2     1.091721699482   111.80182575    59.62796114
 C      2   1   3     1.368877176771   110.12594134   357.32397428
 C     15   2   1     1.388224993432   125.46435385   182.88985881
 H     16  15   2     1.082251373867   121.79795019   359.59139166
 C     16  15   2     1.394315989255   118.49561483   179.71579469
 H     18  16  15     1.085852577010   118.68570839   180.06085760
 C     18  16  15     1.395033069348   121.53322883     0.17606451
 H     20  18  16     1.084702842949   120.19442222   179.79940982
 C     20  18  16     1.384470907961   119.51813888   359.59864842
 H     22  20  18     1.086391516511   120.77227342   180.54087565
 C     22  20  18     1.405598354284   120.53496720     0.14230417
 Cl     1   2   3     2.328166040269    87.99899887   102.92499517
 Cl     1   2   3     2.336439711618    88.43807151   255.80713233
 C      1   2   3     1.807464482143   173.63789627   354.44681751
 O     27   1   3     1.152191396925   177.19282558   203.72367558

---------------------------
INTERNAL COORDINATES (A.U.)
---------------------------
 Ru     0   0   0     0.000000000000     0.00000000     0.00000000
 O      1   0   0     4.227447550420     0.00000000     0.00000000
 C      1   2   0     3.488911458559    79.98789412     0.00000000
 H      3   1   2     2.063634610792   124.40489615   180.93236943
 C      2   1   3     2.805427728467   129.55922884   171.91461099
 H      5   2   1     2.072844709450   105.40842618   137.82828454
 C      5   2   1     2.865722246338   109.54137383   258.67927899
 H      7   5   2     2.064688056283   112.46969230   304.23640806
 H      7   5   2     2.069526622401   108.78461599   184.33723945
 H      7   5   2     2.065958724424   109.76442177    65.13017979
 C      5   2   1     2.857057739752   106.70348254    21.41412078
 H     11   5   2     2.072504859361   110.56048094   297.94722903
 H     11   5   2     2.067845705781   108.34225246   180.56791406
 H     11   5   2     2.063055026480   111.80182575    59.62796114
 C      2   1   3     2.586802975073   110.12594134   357.32397428
 C     15   2   1     2.623365049851   125.46435385   182.88985881
 H     16  15   2     2.045158704669   121.79795019   359.59139166
 C     16  15   2     2.634875363839   118.49561483   179.71579469
 H     18  16  15     2.051963992362   118.68570839   180.06085760
 C     18  16  15     2.636230448831   121.53322883     0.17606451
 H     20  18  16     2.049791309859   120.19442222   179.79940982
 C     20  18  16     2.616270856427   119.51813888   359.59864842
 H     22  20  18     2.052982440420   120.77227342   180.54087565
 C     22  20  18     2.656195943887   120.53496720     0.14230417
 Cl     1   2   3     4.399596210404    87.99899887   102.92499517
 Cl     1   2   3     4.415231183376    88.43807151   255.80713233
 C      1   2   3     3.415612868041   173.63789627   354.44681751
 O     27   1   3     2.177326194049   177.19282558   203.72367558

---------------------
BASIS SET INFORMATION
---------------------
There are 5 groups of distinct atoms

 Group   1 Type Ru  : 7s7p5d contracted to 6s4p3d pattern {211111/4111/311}
 Group   2 Type O   : 11s6p2d contracted to 5s3p2d pattern {62111/411/11}
 Group   3 Type C   : 11s6p1d contracted to 5s3p1d pattern {62111/411/1}
 Group   4 Type H   : 4s1p contracted to 2s1p pattern {31/1}
 Group   5 Type Cl  : 14s9p2d contracted to 5s4p2d pattern {73211/6111/11}

Atom   0Ru   basis set group =>   1
Atom   1O    basis set group =>   2
Atom   2C    basis set group =>   3
Atom   3H    basis set group =>   4
Atom   4C    basis set group =>   3
Atom   5H    basis set group =>   4
Atom   6C    basis set group =>   3
Atom   7H    basis set group =>   4
Atom   8H    basis set group =>   4
Atom   9H    basis set group =>   4
Atom  10C    basis set group =>   3
Atom  11H    basis set group =>   4
Atom  12H    basis set group =>   4
Atom  13H    basis set group =>   4
Atom  14C    basis set group =>   3
Atom  15C    basis set group =>   3
Atom  16H    basis set group =>   4
Atom  17C    basis set group =>   3
Atom  18H    basis set group =>   4
Atom  19C    basis set group =>   3
Atom  20H    basis set group =>   4
Atom  21C    basis set group =>   3
Atom  22H    basis set group =>   4
Atom  23C    basis set group =>   3
Atom  24Cl   basis set group =>   5
Atom  25Cl   basis set group =>   5
Atom  26C    basis set group =>   3
Atom  27O    basis set group =>   2
---------------------------------
AUXILIARY/J BASIS SET INFORMATION
---------------------------------
There are 5 groups of distinct atoms

 Group   1 Type Ru  : 11s5p5d3f3g contracted to 8s5p5d2f3g pattern {41111111/11111/11111/21/111}
 Group   2 Type O   : 8s3p3d contracted to 6s3p3d pattern {311111/111/111}
 Group   3 Type C   : 8s3p3d contracted to 6s3p3d pattern {311111/111/111}
 Group   4 Type H   : 5s2p1d contracted to 3s1p1d pattern {311/2/1}
 Group   5 Type Cl  : 14s5p5d2f contracted to 8s4p3d1f pattern {71111111/2111/311/2}

Atom   0Ru   basis set group =>   1
Atom   1O    basis set group =>   2
Atom   2C    basis set group =>   3
Atom   3H    basis set group =>   4
Atom   4C    basis set group =>   3
Atom   5H    basis set group =>   4
Atom   6C    basis set group =>   3
Atom   7H    basis set group =>   4
Atom   8H    basis set group =>   4
Atom   9H    basis set group =>   4
Atom  10C    basis set group =>   3
Atom  11H    basis set group =>   4
Atom  12H    basis set group =>   4
Atom  13H    basis set group =>   4
Atom  14C    basis set group =>   3
Atom  15C    basis set group =>   3
Atom  16H    basis set group =>   4
Atom  17C    basis set group =>   3
Atom  18H    basis set group =>   4
Atom  19C    basis set group =>   3
Atom  20H    basis set group =>   4
Atom  21C    basis set group =>   3
Atom  22H    basis set group =>   4
Atom  23C    basis set group =>   3
Atom  24Cl   basis set group =>   5
Atom  25Cl   basis set group =>   5
Atom  26C    basis set group =>   3
Atom  27O    basis set group =>   2
-------------------------
ECP PARAMETER INFORMATION
-------------------------

 Group 1, Type Ru ECP Def2-ECP (replacing 28 core electrons, lmax=3)

Atom   0Ru   ECP group =>   1



           ************************************************************
           *        Program running with 20 parallel MPI-processes    *
           *              working on a common directory               *
           ************************************************************
------------------------------------------------------------------------------
                             ORCA STARTUP CALCULATIONS
                           -- RI-GTO INTEGRALS CHOSEN --
------------------------------------------------------------------------------
------------------------------------------------------------------------------
                   ___                                                        
                  /   \      - P O W E R E D   B Y -                         
                 /     \                                                     
                 |  |  |   _    _      __       _____    __    __             
                 |  |  |  | |  | |    /  \     |  _  \  |  |  /  |          
                  \  \/   | |  | |   /    \    | | | |  |  | /  /          
                 / \  \   | |__| |  /  /\  \   | |_| |  |  |/  /          
                |  |  |   |  __  | /  /__\  \  |    /   |      \           
                |  |  |   | |  | | |   __   |  |    \   |  |\   \          
                \     /   | |  | | |  |  |  |  | |\  \  |  | \   \       
                 \___/    |_|  |_| |__|  |__|  |_| \__\ |__|  \__/        
                                                                              
                      - O R C A' S   B I G   F R I E N D -                    
                                      &                                       
                       - I N T E G R A L  F E E D E R -                       
                                                                              
 v1 FN, 2020, v2 2021, v3 2022-2024                                           
------------------------------------------------------------------------------


----------------------
SHARK INTEGRAL PACKAGE
----------------------

Number of atoms                             ...     28
Number of basis functions                   ...    404
Number of shells                            ...    190
Maximum angular momentum                    ...      2
Integral batch strategy                     ... SHARK/LIBINT Hybrid
RI-J (if used) integral strategy            ... SPLIT-RIJ (Revised 2003 algorithm where possible)
Printlevel                                  ...      1
Contraction scheme used                     ... SEGMENTED contraction
Prescreening option                         ... SCHWARTZ
   Thresh                                   ... 2.500e-11
   Tcut                                     ... 2.500e-12
   Tpresel                                  ... 2.500e-12 
Coulomb Range Separation                    ... NOT USED
Exchange Range Separation                   ... NOT USED
Multipole approximations                    ... NOT USED
Finite Nucleus Model                        ... NOT USED
CABS basis                                  ... NOT available
Auxiliary Coulomb fitting basis             ... AVAILABLE
   # of basis functions in Aux-J            ...    695
   # of shells in Aux-J                     ...    271
   Maximum angular momentum in Aux-J        ...      4
Auxiliary J/K fitting basis                 ... NOT available
Auxiliary Correlation fitting basis         ... NOT available
Auxiliary 'external' fitting basis          ... NOT available

Checking pre-screening integrals            ... done (  0.0 sec) Dimension = 190
Check shell pair data                       ... done (  0.0 sec)
Shell pair information
Shell pair cut-off parameter TPreSel        ...   2.5e-12
Total number of shell pairs                 ...     18145
Shell pairs after pre-screening             ...     14288
Total number of primitive shell pairs       ...     67207
Primitive shell pairs kept                  ...     34001
          la=0 lb=0:   4144 shell pairs
          la=1 lb=0:   5279 shell pairs
          la=1 lb=1:   1700 shell pairs
          la=2 lb=0:   1795 shell pairs
          la=2 lb=1:   1153 shell pairs
          la=2 lb=2:    217 shell pairs

Calculating one electron integrals          ... done (  0.0 sec)
Calculating ECP integrals                   ... done (  0.5 sec)
Calculating RI/J V-Matrix + Cholesky decomp.... done (  0.0 sec)
Calculating Nuclear repulsion               ... done (  0.0 sec) ENN=   1535.367932059371 Eh

Diagonalization of the overlap matrix:
Smallest eigenvalue                        ... 2.288e-05
Time for diagonalization                   ...    0.035 sec
Threshold for overlap eigenvalues          ... 1.000e-07
Number of eigenvalues below threshold      ... 0
Time for construction of square roots      ...    0.013 sec
Total time needed                          ...    0.063 sec

-------------------
DFT GRID GENERATION
-------------------

General Integration Accuracy     IntAcc      ... 4.388
Radial Grid Type                 RadialGrid  ... OptM3 with GC (2021)
Angular Grid (max. ang.)         AngularGrid ... 4 (Lebedev-302)
Angular grid pruning method      GridPruning ... 4 (adaptive)
Weight generation scheme         WeightScheme... mBecke (2022)
Basis function cutoff            BFCut       ... 1.0000e-11
Integration weight cutoff        WCut        ... 1.0000e-14
Partially contracted basis set               ... off
Rotationally invariant grid construction     ... off
Angular grids for H and He will be reduced by one unit
Diffuse basis detected: some atoms will have their outermost
                        angular grid increased by 1.

Total number of grid points                  ...   141331
Total number of batches                      ...     2223
Average number of points per batch           ...       63
Average number of grid points per atom       ...     5048
Initializing property integral containers    ... done (  0.1 sec)

SHARK setup successfully completed in   2.3 seconds

Maximum memory used throughout the entire STARTUP-calculation: 48.7 MB


           ************************************************************
           *        Program running with 20 parallel MPI-processes    *
           *              working on a common directory               *
           ************************************************************
-------------------------------------------------------------------------------
                                 ORCA GUESS
                   Start orbitals & Density for SCF / CASSCF
-------------------------------------------------------------------------------

------------
SCF SETTINGS
------------
Hamiltonian:
 Density Functional     Method          .... DFT(GTOs)
  Functional kind                       .... Exchange
  Functional name                       .... Re-regularized SCAN exchange by Furness et al
  Functional family                     .... MGGA
  Functional refs                              
    [ 0] J. W. Furness, A. D. Kaplan, J. Ning, J. P. Perdew, and J. Sun.,  J. Phys. Chem. Lett. 11, 8208-8215 (2020), doi: 10.1021/acs.jpclett.0c02405
    [ 1] J. W. Furness, A. D. Kaplan, J. Ning, J. P. Perdew, and J. Sun.,  J. Phys. Chem. Lett. 11, 9248-9248 (2020), doi: 10.1021/acs.jpclett.0c03077
  Functional external parameters        .... 6
    Parameter  0 _c1        =  6.670000e-01 : c1 parameter        
    Parameter  1 _c2        =  8.000000e-01 : c2 parameter        
    Parameter  2 _d         =  1.240000e+00 : d parameter         
    Parameter  3 _k1        =  6.500000e-02 : k1 parameter        
    Parameter  4 _eta       =  1.000000e-03 : eta parameter       
    Parameter  5 _dp2       =  3.610000e-01 : dp2 parameter       
  Functional kind                       .... Correlation
  Functional name                       .... Re-regularized SCAN correlation by Furness et al
  Functional family                     .... MGGA
  Functional refs                              
    [ 0] J. W. Furness, A. D. Kaplan, J. Ning, J. P. Perdew, and J. Sun.,  J. Phys. Chem. Lett. 11, 8208-8215 (2020), doi: 10.1021/acs.jpclett.0c02405
    [ 1] J. W. Furness, A. D. Kaplan, J. Ning, J. P. Perdew, and J. Sun.,  J. Phys. Chem. Lett. 11, 9248-9248 (2020), doi: 10.1021/acs.jpclett.0c03077
  Functional external parameters        .... 1
    Parameter  0 _eta       =  1.000000e-03 : Regularization parameter
 Gradients option       PostSCFGGA      .... off
 RI-approximation to the Coulomb term is turned on
   Number of AuxJ basis functions       .... 695


General Settings:
 Integral files         IntName         .... cli48_Compound_1
 Hartree-Fock type      HFTyp           .... RHF
 Total Charge           Charge          ....    0
 Multiplicity           Mult            ....    1
 Number of Electrons    NEL             ....  144
 Basis Dimension        Dim             ....  404
 Nuclear Repulsion      ENuc            ....   1535.3679320594 Eh

Convergence Acceleration:
 AO-DIIS                CNVDIIS         .... on
   Start iteration      DIISMaxIt       ....    12
   Startup error        DIISStart       ....  0.200000
   # of expansion vecs  DIISMaxEq       ....     5
   Bias factor          DIISBfac        ....   1.050
   Max. coefficient     DIISMaxC        ....  10.000
 MO-DIIS                CNVKDIIS        .... off
 Trust-Rad. Augm. Hess. CNVTRAH         .... auto
   Auto Start mean grad. ratio tolernc. ....  1.125000
   Auto Start start iteration           ....     1
   Auto Start num. interpolation iter.  ....    10
   Max. Number of Micro iterations      ....    24
   Max. Number of Macro iterations      .... Maxiter - #DIIS iter
   Number of Davidson start vectors     ....     2
   Converg. threshold    (grad. norm)   ....   1.000e-05
   Grad. Scal. Fac. for Micro threshold ....   0.100
   Minimum threshold for Micro iter.    ....   1.000e-02
   NR start threshold (gradient norm)   ....   1.000e-04
   Initial trust radius                 ....   0.400
   Minimum AH scaling param. (alpha)    ....   1.000
   Maximum AH scaling param. (alpha)    .... 1000.000
   Quad. conv. algorithm                .... NR
   White noise on init. David. guess    .... on
   Maximum white noise                  ....   0.010
   Pseudo random numbers                .... off
   Inactive MOs                         .... canonical
   Orbital update algorithm             .... Taylor
   Preconditioner                       .... Diag
   Full preconditioner red. dimension   ....   250
   COSX micro iterations for RIJONX calc.... off
 SOSCF                  CNVSOSCF        .... on
   Start iteration      SOSCFMaxIt      ....   150
   Startup grad/error   SOSCFStart      ....  0.003300
   Hessian update       SOSCFHessUp     .... L-BFGS
 Level Shifting         CNVShift        .... on
   Level shift para.    LevelShift      ....    0.2500
   Turn off err/grad.   ShiftErr        ....    0.0010
 Zerner damping         CNVZerner       .... off
 Static damping         CNVDamp         .... on
   Fraction old density DampFac         ....    0.7000
   Max. Damping (<1)    DampMax         ....    0.9800
   Min. Damping (>=0)   DampMin         ....    0.0000
   Turn off err/grad.   DampErr         ....    0.1000

SCF Procedure:
 Maximum # iterations   MaxIter         ....   500
 SCF integral mode      SCFMode         .... Direct
   Integral package                     .... SHARK and LIBINT hybrid scheme
 Reset frequency        DirectResetFreq ....    20
 Integral Threshold     Thresh          ....  2.500e-11 Eh
 Primitive CutOff       TCut            ....  2.500e-12 Eh

Convergence Tolerance:
 Convergence Check Mode ConvCheckMode   .... Total+1el-Energy
 Convergence forced     ConvForced      .... 0
 Energy Change          TolE            ....  1.000e-08 Eh
 1-El. energy change                    ....  1.000e-05 Eh
 Orbital Gradient       TolG            ....  1.000e-05
 Orbital Rotation angle TolX            ....  1.000e-05
 DIIS Error             TolErr          ....  5.000e-07

---------------------
INITIAL GUESS: MOREAD
---------------------
Guess MOs are being read from file: restart.gbw
Input geometry compatible with but different from current geometry
Input basis set matches current basis set (good)
Occupation numbers will be reassigned to an Aufbau configuration
MOs were renormalized
MOs were reorthogonalized (Cholesky)
                      ------------------
                      INITIAL GUESS DONE (   0.2 sec)
                      ------------------
             **** ENERGY FILE WAS UPDATED (cli48_Compound_1.en.tmp) ****
Finished Guess after   1.7 sec
Maximum memory used throughout the entire GUESS-calculation: 28.6 MB


           ************************************************************
           *        Program running with 20 parallel MPI-processes    *
           *              working on a common directory               *
           ************************************************************

-------------------------------------------------------------------------------------------
                                      ORCA LEAN-SCF
                              memory conserving SCF solver
-------------------------------------------------------------------------------------------

----------------------------------------D-I-I-S--------------------------------------------
Iteration    Energy (Eh)           Delta-E    RMSDP     MaxDP     DIISErr   Damp  Time(sec)
-------------------------------------------------------------------------------------------
               ***  Starting incremental Fock matrix formation  ***
                              *** Initializing SOSCF ***
---------------------------------------S-O-S-C-F--------------------------------------
Iteration    Energy (Eh)           Delta-E    RMSDP     MaxDP     MaxGrad    Time(sec)
--------------------------------------------------------------------------------------
    1    -1592.1766255387024103     0.00e+00  5.36e-07  2.40e-05  1.53e-06     1.5
               *** Restarting incremental Fock matrix formation ***
    2    -1592.1766255386664852     3.59e-11  5.74e-07  1.45e-05  2.98e-06     1.3
    3    -1592.1766255463817288    -7.72e-09  5.72e-07  1.59e-05  9.79e-06     1.0
                 **** Energy Check signals convergence ****

               *****************************************************
               *                     SUCCESS                       *
               *           SCF CONVERGED AFTER   3 CYCLES          *
               *****************************************************

             **** ENERGY FILE WAS UPDATED (cli48_Compound_1.en.tmp) ****

----------------
TOTAL SCF ENERGY
----------------

Total Energy       :      -1592.17662554638173 Eh          -43325.32860 eV

Components:
Nuclear Repulsion  :       1535.36793205937101 Eh           41779.48546 eV
Electronic Energy  :      -3127.54455760575274 Eh          -85104.81406 eV
One Electron Energy:      -5274.38767284995538 Eh         -143523.38517 eV
Two Electron Energy:       2146.84311524420264 Eh           58418.57111 eV

Virial components:
Potential Energy   :      -3118.64819491089384 Eh          -84862.73172 eV
Kinetic Energy     :       1526.47156936451211 Eh           41537.40312 eV
Virial Ratio       :          2.04304374709660

DFT components:
N(Alpha)           :       72.000068203756 electrons
N(Beta)            :       72.000068203756 electrons
N(Total)           :      144.000136407511 electrons
E(X)               :     -142.698195977756 Eh       
E(C)               :       -5.014342114693 Eh       
E(XC)              :     -147.712538092449 Eh       

---------------
SCF CONVERGENCE
---------------

  Last Energy change         ...    7.7152e-09  Tolerance :   1.0000e-08
  Last MAX-Density change    ...    1.5924e-05  Tolerance :   1.0000e-07
  Last RMS-Density change    ...    5.7231e-07  Tolerance :   5.0000e-09
  Last DIIS Error            ...    8.2212e-06  Tolerance :   5.0000e-07
  Last Orbital Gradient      ...    9.7872e-06  Tolerance :   1.0000e-05
  Last Orbital Rotation      ...    1.3998e-05  Tolerance :   1.0000e-05


----------------
ORBITAL ENERGIES
----------------

  NO   OCC          E(Eh)            E(eV) 
   0   2.0000    -101.172470     -2753.0429 
   1   2.0000    -101.171522     -2753.0171 
   2   2.0000     -19.043535      -518.2009 
   3   2.0000     -19.023434      -517.6539 
   4   2.0000     -10.150104      -276.1984 
   5   2.0000     -10.138066      -275.8708 
   6   2.0000     -10.130569      -275.6668 
   7   2.0000     -10.095795      -274.7206 
   8   2.0000     -10.077799      -274.2309 
   9   2.0000     -10.075649      -274.1723 
  10   2.0000     -10.074227      -274.1337 
  11   2.0000     -10.072059      -274.0746 
  12   2.0000     -10.063326      -273.8370 
  13   2.0000     -10.045548      -273.3532 
  14   2.0000     -10.044690      -273.3299 
  15   2.0000      -9.327353      -253.8102 
  16   2.0000      -9.326396      -253.7841 
  17   2.0000      -7.070874      -192.4083 
  18   2.0000      -7.069964      -192.3835 
  19   2.0000      -7.065551      -192.2634 
  20   2.0000      -7.064579      -192.2370 
  21   2.0000      -7.064347      -192.2306 
  22   2.0000      -7.063356      -192.2037 
  23   2.0000      -3.022219       -82.2387 
  24   2.0000      -1.876017       -51.0490 
  25   2.0000      -1.871054       -50.9140 
  26   2.0000      -1.870643       -50.9028 
  27   2.0000      -1.091024       -29.6883 
  28   2.0000      -1.074971       -29.2515 
  29   2.0000      -0.861748       -23.4493 
  30   2.0000      -0.796820       -21.6826 
  31   2.0000      -0.773094       -21.0370 
  32   2.0000      -0.740741       -20.1566 
  33   2.0000      -0.730396       -19.8751 
  34   2.0000      -0.722578       -19.6623 
  35   2.0000      -0.683982       -18.6121 
  36   2.0000      -0.666299       -18.1309 
  37   2.0000      -0.636374       -17.3166 
  38   2.0000      -0.584039       -15.8925 
  39   2.0000      -0.574861       -15.6428 
  40   2.0000      -0.544569       -14.8185 
  41   2.0000      -0.531140       -14.4531 
  42   2.0000      -0.494767       -13.4633 
  43   2.0000      -0.482020       -13.1164 
  44   2.0000      -0.464851       -12.6492 
  45   2.0000      -0.452484       -12.3127 
  46   2.0000      -0.444201       -12.0873 
  47   2.0000      -0.434688       -11.8285 
  48   2.0000      -0.428974       -11.6730 
  49   2.0000      -0.423088       -11.5128 
  50   2.0000      -0.413149       -11.2424 
  51   2.0000      -0.406623       -11.0648 
  52   2.0000      -0.392009       -10.6671 
  53   2.0000      -0.385945       -10.5021 
  54   2.0000      -0.381840       -10.3904 
  55   2.0000      -0.376153       -10.2356 
  56   2.0000      -0.358799        -9.7634 
  57   2.0000      -0.355785        -9.6814 
  58   2.0000      -0.349367        -9.5068 
  59   2.0000      -0.342300        -9.3144 
  60   2.0000      -0.340978        -9.2785 
  61   2.0000      -0.333981        -9.0881 
  62   2.0000      -0.331506        -9.0207 
  63   2.0000      -0.298836        -8.1317 
  64   2.0000      -0.296516        -8.0686 
  65   2.0000      -0.273407        -7.4398 
  66   2.0000      -0.270719        -7.3666 
  67   2.0000      -0.269633        -7.3371 
  68   2.0000      -0.248440        -6.7604 
  69   2.0000      -0.244713        -6.6590 
  70   2.0000      -0.218695        -5.9510 
  71   2.0000      -0.211500        -5.7552 
  72   0.0000      -0.129456        -3.5227 
  73   0.0000      -0.107656        -2.9295 
  74   0.0000      -0.064082        -1.7438 
  75   0.0000      -0.056605        -1.5403 
  76   0.0000      -0.030185        -0.8214 
  77   0.0000      -0.022272        -0.6060 
  78   0.0000      -0.018532        -0.5043 
  79   0.0000       0.033298         0.9061 
  80   0.0000       0.042347         1.1523 
  81   0.0000       0.054296         1.4775 
  82   0.0000       0.057188         1.5562 
*Only the first 10 virtual orbitals were printed.

                    ********************************
                    * MULLIKEN POPULATION ANALYSIS *
                    ********************************

-----------------------
MULLIKEN ATOMIC CHARGES
-----------------------
   0 Ru:    0.083750
   1 O :   -0.087984
   2 C :   -0.093995
   3 H :    0.150323
   4 C :   -0.073054
   5 H :    0.155836
   6 C :   -0.419470
   7 H :    0.155613
   8 H :    0.160148
   9 H :    0.192933
  10 C :   -0.461279
  11 H :    0.179469
  12 H :    0.152990
  13 H :    0.196458
  14 C :    0.266253
  15 C :   -0.257102
  16 H :    0.154436
  17 C :   -0.123235
  18 H :    0.153929
  19 C :   -0.153238
  20 H :    0.153810
  21 C :   -0.205575
  22 H :    0.151564
  23 C :    0.012858
  24 Cl:   -0.370060
  25 Cl:   -0.379422
  26 C :    0.593058
  27 O :   -0.289016
Sum of atomic charges:   -0.0000000

--------------------------------
MULLIKEN REDUCED ORBITAL CHARGES
--------------------------------
  0 Rus       :     2.681598  s :     2.681598
      pz      :     2.187210  p :     6.563402
      px      :     2.207837
      py      :     2.168356
      dz2     :     1.175217  d :     6.671250
      dxz     :     1.505988
      dyz     :     1.315237
      dx2y2   :     1.509414
      dxy     :     1.165394

  1 O s       :     3.658002  s :     3.658002
      pz      :     1.759473  p :     4.343864
      px      :     1.432727
      py      :     1.151663
      dz2     :     0.008900  d :     0.086119
      dxz     :     0.017302
      dyz     :     0.016065
      dx2y2   :     0.025624
      dxy     :     0.018228

  2 C s       :     3.155882  s :     3.155882
      pz      :     0.854217  p :     2.899405
      px      :     1.031292
      py      :     1.013897
      dz2     :     0.003235  d :     0.038708
      dxz     :     0.006994
      dyz     :     0.004857
      dx2y2   :     0.015586
      dxy     :     0.008036

  3 H s       :     0.830439  s :     0.830439
      pz      :     0.004739  p :     0.019238
      px      :     0.004427
      py      :     0.010072

  4 C s       :     3.233801  s :     3.233801
      pz      :     0.988862  p :     2.775577
      px      :     1.037893
      py      :     0.748822
      dz2     :     0.010080  d :     0.063676
      dxz     :     0.013868
      dyz     :     0.013095
      dx2y2   :     0.015284
      dxy     :     0.011348

  5 H s       :     0.826780  s :     0.826780
      pz      :     0.008376  p :     0.017384
      px      :     0.006705
      py      :     0.002303

  6 C s       :     3.306221  s :     3.306221
      pz      :     0.990490  p :     3.086558
      px      :     1.078365
      py      :     1.017703
      dz2     :     0.004074  d :     0.026691
      dxz     :     0.008470
      dyz     :     0.005509
      dx2y2   :     0.004000
      dxy     :     0.004638

  7 H s       :     0.826006  s :     0.826006
      pz      :     0.004752  p :     0.018381
      px      :     0.008305
      py      :     0.005324

  8 H s       :     0.821862  s :     0.821862
      pz      :     0.003989  p :     0.017990
      px      :     0.004368
      py      :     0.009634

  9 H s       :     0.788858  s :     0.788858
      pz      :     0.007777  p :     0.018209
      px      :     0.006980
      py      :     0.003452

 10 C s       :     3.350468  s :     3.350468
      pz      :     1.087422  p :     3.083861
      px      :     0.944427
      py      :     1.052012
      dz2     :     0.003644  d :     0.026950
      dxz     :     0.008811
      dyz     :     0.003720
      dx2y2   :     0.005654
      dxy     :     0.005122

 11 H s       :     0.802304  s :     0.802304
      pz      :     0.007692  p :     0.018227
      px      :     0.006889
      py      :     0.003646

 12 H s       :     0.828932  s :     0.828932
      pz      :     0.004274  p :     0.018077
      px      :     0.003655
      py      :     0.010149

 13 H s       :     0.785251  s :     0.785251
      pz      :     0.007945  p :     0.018291
      px      :     0.004800
      py      :     0.005545

 14 C s       :     3.118548  s :     3.118548
      pz      :     0.893334  p :     2.542516
      px      :     0.776629
      py      :     0.872553
      dz2     :     0.006760  d :     0.072683
      dxz     :     0.013412
      dyz     :     0.010355
      dx2y2   :     0.019021
      dxy     :     0.023136

 15 C s       :     3.242337  s :     3.242337
      pz      :     1.055005  p :     2.977878
      px      :     0.937154
      py      :     0.985719
      dz2     :     0.003411  d :     0.036887
      dxz     :     0.006591
      dyz     :     0.004189
      dx2y2   :     0.012867
      dxy     :     0.009829

 16 H s       :     0.825460  s :     0.825460
      pz      :     0.005699  p :     0.020104
      px      :     0.004345
      py      :     0.010060

 17 C s       :     3.200947  s :     3.200947
      pz      :     0.948616  p :     2.883312
      px      :     1.019516
      py      :     0.915180
      dz2     :     0.004278  d :     0.038975
      dxz     :     0.004023
      dyz     :     0.007263
      dx2y2   :     0.012253
      dxy     :     0.011158

 18 H s       :     0.826886  s :     0.826886
      pz      :     0.004246  p :     0.019186
      px      :     0.011664
      py      :     0.003276

 19 C s       :     3.188271  s :     3.188271
      pz      :     0.990303  p :     2.927008
      px      :     0.960929
      py      :     0.975776
      dz2     :     0.004094  d :     0.037959
      dxz     :     0.005849
      dyz     :     0.004664
      dx2y2   :     0.011223
      dxy     :     0.012129

 20 H s       :     0.826820  s :     0.826820
      pz      :     0.004278  p :     0.019370
      px      :     0.006827
      py      :     0.008265

 21 C s       :     3.236691  s :     3.236691
      pz      :     0.974211  p :     2.930123
      px      :     0.943391
      py      :     1.012521
      dz2     :     0.003262  d :     0.038761
      dxz     :     0.007658
      dyz     :     0.003959
      dx2y2   :     0.011157
      dxy     :     0.012726

 22 H s       :     0.829114  s :     0.829114
      pz      :     0.005155  p :     0.019321
      px      :     0.004098
      py      :     0.010068

 23 C s       :     3.244590  s :     3.244590
      pz      :     1.006828  p :     2.694039
      px      :     0.775374
      py      :     0.911838
      dz2     :     0.004732  d :     0.048513
      dxz     :     0.007067
      dyz     :     0.007136
      dx2y2   :     0.014950
      dxy     :     0.014627

 24 Cls       :     5.963088  s :     5.963088
      pz      :     3.563689  p :    11.377477
      px      :     3.919708
      py      :     3.894079
      dz2     :     0.010239  d :     0.029495
      dxz     :     0.008570
      dyz     :     0.008513
      dx2y2   :     0.001025
      dxy     :     0.001149

 25 Cls       :     5.963051  s :     5.963051
      pz      :     3.706884  p :    11.387177
      px      :     3.926771
      py      :     3.753521
      dz2     :     0.010233  d :     0.029193
      dxz     :     0.005358
      dyz     :     0.007462
      dx2y2   :     0.002175
      dxy     :     0.003966

 26 C s       :     3.179286  s :     3.179286
      pz      :     0.709425  p :     2.144673
      px      :     0.731713
      py      :     0.703535
      dz2     :     0.010659  d :     0.082982
      dxz     :     0.021479
      dyz     :     0.007726
      dx2y2   :     0.023587
      dxy     :     0.019530

 27 O s       :     3.875937  s :     3.875937
      pz      :     1.501803  p :     4.376594
      px      :     1.400112
      py      :     1.474679
      dz2     :     0.004201  d :     0.036485
      dxz     :     0.009080
      dyz     :     0.002631
      dx2y2   :     0.010326
      dxy     :     0.010246



                     *******************************
                     * LOEWDIN POPULATION ANALYSIS *
                     *******************************

----------------------
LOEWDIN ATOMIC CHARGES
----------------------
   0 Ru:   -0.388179
   1 O :   -0.688667
   2 C :   -0.023399
   3 H :    0.183409
   4 C :    0.087981
   5 H :    0.183730
   6 C :   -0.378650
   7 H :    0.167298
   8 H :    0.165583
   9 H :    0.180909
  10 C :   -0.370362
  11 H :    0.179772
  12 H :    0.169472
  13 H :    0.181264
  14 C :    0.250379
  15 C :   -0.155491
  16 H :    0.182158
  17 C :   -0.124072
  18 H :    0.174839
  19 C :   -0.171500
  20 H :    0.174879
  21 C :   -0.107824
  22 H :    0.179494
  23 C :   -0.055822
  24 Cl:   -0.046115
  25 Cl:   -0.056812
  26 C :    0.343432
  27 O :   -0.237707

-------------------------------
LOEWDIN REDUCED ORBITAL CHARGES
-------------------------------
  0 Rus       :     2.284515  s :     2.284515
      pz      :     2.407191  p :     6.955166
      px      :     2.264849
      py      :     2.283125
      dz2     :     1.323649  d :     7.148498
      dxz     :     1.548596
      dyz     :     1.404683
      dx2y2   :     1.551956
      dxy     :     1.319615

  1 O s       :     3.429485  s :     3.429485
      pz      :     1.749882  p :     4.658156
      px      :     1.540649
      py      :     1.367624
      dz2     :     0.067711  d :     0.601026
      dxz     :     0.092146
      dyz     :     0.112264
      dx2y2   :     0.160096
      dxy     :     0.168810

  2 C s       :     2.966701  s :     2.966701
      pz      :     0.869667  p :     2.981939
      px      :     1.045360
      py      :     1.066912
      dz2     :     0.005286  d :     0.074759
      dxz     :     0.012565
      dyz     :     0.008804
      dx2y2   :     0.032272
      dxy     :     0.015832

  3 H s       :     0.770931  s :     0.770931
      pz      :     0.010777  p :     0.045660
      px      :     0.010173
      py      :     0.024711

  4 C s       :     2.839213  s :     2.839213
      pz      :     1.051686  p :     2.942420
      px      :     1.069773
      py      :     0.820961
      dz2     :     0.018899  d :     0.130386
      dxz     :     0.029954
      dyz     :     0.026723
      dx2y2   :     0.030724
      dxy     :     0.024085

  5 H s       :     0.774797  s :     0.774797
      pz      :     0.019938  p :     0.041473
      px      :     0.015863
      py      :     0.005673

  6 C s       :     2.966675  s :     2.966675
      pz      :     1.103105  p :     3.351168
      px      :     1.141848
      py      :     1.106214
      dz2     :     0.009056  d :     0.060807
      dxz     :     0.019409
      dyz     :     0.012162
      dx2y2   :     0.009358
      dxy     :     0.010823

  7 H s       :     0.788763  s :     0.788763
      pz      :     0.010795  p :     0.043939
      px      :     0.020411
      py      :     0.012734

  8 H s       :     0.791108  s :     0.791108
      pz      :     0.009363  p :     0.043309
      px      :     0.009966
      py      :     0.023980

  9 H s       :     0.774233  s :     0.774233
      pz      :     0.019508  p :     0.044858
      px      :     0.017664
      py      :     0.007686

 10 C s       :     2.962293  s :     2.962293
      pz      :     1.151039  p :     3.347519
      px      :     1.075187
      py      :     1.121292
      dz2     :     0.007828  d :     0.060550
      dxz     :     0.019974
      dyz     :     0.008446
      dx2y2   :     0.013507
      dxy     :     0.010796

 11 H s       :     0.776025  s :     0.776025
      pz      :     0.019484  p :     0.044202
      px      :     0.016825
      py      :     0.007894

 12 H s       :     0.787230  s :     0.787230
      pz      :     0.009635  p :     0.043298
      px      :     0.008471
      py      :     0.025192

 13 H s       :     0.773566  s :     0.773566
      pz      :     0.020673  p :     0.045170
      px      :     0.011150
      py      :     0.013347

 14 C s       :     2.765898  s :     2.765898
      pz      :     0.910725  p :     2.829471
      px      :     0.986303
      py      :     0.932443
      dz2     :     0.014270  d :     0.154252
      dxz     :     0.025282
      dyz     :     0.020593
      dx2y2   :     0.043219
      dxy     :     0.050888

 15 C s       :     2.889691  s :     2.889691
      pz      :     1.042353  p :     3.187930
      px      :     1.045769
      py      :     1.099809
      dz2     :     0.005762  d :     0.077869
      dxz     :     0.012601
      dyz     :     0.007910
      dx2y2   :     0.027941
      dxy     :     0.023654

 16 H s       :     0.771571  s :     0.771571
      pz      :     0.012980  p :     0.046271
      px      :     0.009691
      py      :     0.023600

 17 C s       :     2.908675  s :     2.908675
      pz      :     0.963150  p :     3.133449
      px      :     1.096515
      py      :     1.073783
      dz2     :     0.007525  d :     0.081948
      dxz     :     0.007577
      dyz     :     0.014098
      dx2y2   :     0.028114
      dxy     :     0.024633

 18 H s       :     0.780999  s :     0.780999
      pz      :     0.009249  p :     0.044162
      px      :     0.027795
      py      :     0.007117

 19 C s       :     2.903857  s :     2.903857
      pz      :     1.010603  p :     3.186588
      px      :     1.092296
      py      :     1.083689
      dz2     :     0.007313  d :     0.081056
      dxz     :     0.011505
      dyz     :     0.008853
      dx2y2   :     0.025278
      dxy     :     0.028107

 20 H s       :     0.780530  s :     0.780530
      pz      :     0.009327  p :     0.044590
      px      :     0.015844
      py      :     0.019419

 21 C s       :     2.901496  s :     2.901496
      pz      :     0.968221  p :     3.124771
      px      :     1.083934
      py      :     1.072617
      dz2     :     0.005639  d :     0.081556
      dxz     :     0.014572
      dyz     :     0.007553
      dx2y2   :     0.025581
      dxy     :     0.028210

 22 H s       :     0.776089  s :     0.776089
      pz      :     0.011543  p :     0.044416
      px      :     0.009226
      py      :     0.023647

 23 C s       :     2.841191  s :     2.841191
      pz      :     1.005756  p :     3.115134
      px      :     1.064437
      py      :     1.044942
      dz2     :     0.008900  d :     0.099496
      dxz     :     0.013266
      dyz     :     0.013147
      dx2y2   :     0.032198
      dxy     :     0.031985

 24 Cls       :     5.713301  s :     5.713301
      pz      :     3.536116  p :    11.277287
      px      :     3.881114
      py      :     3.860057
      dz2     :     0.018958  d :     0.055526
      dxz     :     0.017647
      dyz     :     0.015476
      dx2y2   :     0.001704
      dxy     :     0.001740

 25 Cls       :     5.715618  s :     5.715618
      pz      :     3.681888  p :    11.286544
      px      :     3.888145
      py      :     3.716511
      dz2     :     0.017620  d :     0.054651
      dxz     :     0.011172
      dyz     :     0.013376
      dx2y2   :     0.004462
      dxy     :     0.008021

 26 C s       :     2.967847  s :     2.967847
      pz      :     0.749744  p :     2.518670
      px      :     0.992745
      py      :     0.776181
      dz2     :     0.021799  d :     0.170050
      dxz     :     0.043262
      dyz     :     0.014817
      dx2y2   :     0.047735
      dxy     :     0.042437

 27 O s       :     3.545567  s :     3.545567
      pz      :     1.494627  p :     4.516097
      px      :     1.532315
      py      :     1.489155
      dz2     :     0.022670  d :     0.176043
      dxz     :     0.042341
      dyz     :     0.013461
      dx2y2   :     0.045577
      dxy     :     0.051994



                      *****************************
                      * MAYER POPULATION ANALYSIS *
                      *****************************

  NA   - Mulliken gross atomic population
  ZA   - Total nuclear charge
  QA   - Mulliken gross atomic charge
  VA   - Mayer's total valence
  BVA  - Mayer's bonded valence
  FA   - Mayer's free valence

[...]
 33:    623.59   0.000259    1.31  0.000130  (-0.006508 -0.008912 -0.002803)
 34:    629.45   0.003705   18.72  0.001837  ( 0.035223 -0.020793 -0.012803)
 35:    728.73   0.000074    0.37  0.000032  (-0.002032  0.001567  0.005006)
 36:    750.59   0.011680   59.03  0.004856  (-0.009811  0.021803 -0.065456)
 37:    795.14   0.001159    5.86  0.000455  ( 0.020695 -0.004850  0.001715)
 38:    818.56   0.002954   14.93  0.001126  (-0.004879 -0.032852 -0.004822)
 39:    833.35   0.004263   21.55  0.001597  ( 0.004461 -0.009429  0.038571)
 40:    861.45   0.001041    5.26  0.000377  ( 0.003428 -0.006358  0.018026)
 41:    869.42   0.002146   10.85  0.000770  (-0.020996  0.018070  0.001738)
 42:    897.83   0.005782   29.22  0.002010  ( 0.036071 -0.024475 -0.010472)
 43:    941.08   0.006271   31.69  0.002079  (-0.003280 -0.043614 -0.012903)
 44:    943.96   0.006849   34.61  0.002264  ( 0.004062  0.047407  0.000580)
 45:    945.92   0.000636    3.22  0.000210  ( 0.007668  0.006805  0.010242)
 46:    953.02   0.001139    5.76  0.000373  ( 0.003823  0.016929  0.008471)
 47:    975.91   0.000013    0.07  0.000004  (-0.001031  0.001581  0.000789)
 48:   1063.77   0.001340    6.77  0.000393  (-0.009792 -0.017057 -0.002492)
 49:   1122.11   0.016906   85.43  0.004702  ( 0.012363 -0.063751 -0.022012)
 50:   1145.72   0.008205   41.46  0.002235  ( 0.002634  0.045431  0.012801)
 51:   1161.67   0.001709    8.64  0.000459  ( 0.013500 -0.009604  0.013590)
 52:   1190.22   0.001679    8.49  0.000440  ( 0.010561 -0.013638 -0.011949)
 53:   1206.51   0.002267   11.45  0.000586  ( 0.001888  0.023949 -0.003023)
 54:   1210.12   0.001155    5.84  0.000298  ( 0.016467  0.002762 -0.004377)
 55:   1247.77   0.008589   43.40  0.002148  ( 0.015204  0.043490  0.005049)
 56:   1285.34   0.005267   26.62  0.001279  ( 0.020176 -0.027104 -0.011708)
 57:   1339.23   0.009777   49.41  0.002278  ( 0.045156  0.015388 -0.001576)
 58:   1354.50   0.001848    9.34  0.000426  ( 0.008343 -0.018778  0.001899)
 59:   1371.98   0.001885    9.53  0.000429  (-0.017843  0.008239  0.006524)
 60:   1379.97   0.001317    6.65  0.000298  ( 0.012895 -0.011090  0.002906)
 61:   1400.53   0.004672   23.61  0.001041  ( 0.021716  0.000674  0.023851)
 62:   1414.88   0.008023   40.55  0.001770  (-0.000565 -0.041873  0.003990)
 63:   1472.43   0.001120    5.66  0.000237  ( 0.009395  0.008070  0.009167)
 64:   1482.41   0.001511    7.64  0.000318  (-0.016414  0.001075  0.006898)
 65:   1486.04   0.007440   37.60  0.001562  ( 0.023481  0.031710  0.002363)
 66:   1489.02   0.001984   10.02  0.000416  (-0.003883  0.008003  0.018346)
 67:   1500.43   0.007297   36.88  0.001518  ( 0.017082  0.034899  0.002825)
 68:   1512.05   0.004079   20.62  0.000842  (-0.000635 -0.025419 -0.013978)
 69:   1605.42   0.002785   14.07  0.000541  ( 0.005564  0.021720  0.006217)
 70:   1626.26   0.012378   62.55  0.002375  ( 0.046398  0.013711 -0.005859)
 71:   2068.98   0.188622  953.22  0.028450  (-0.153539  0.056208  0.041428)
 72:   3022.28   0.001187    6.00  0.000123  ( 0.007139  0.005580  0.006358)
 73:   3027.32   0.002516   12.71  0.000259  (-0.008850  0.013395 -0.001258)
 74:   3035.31   0.002623   13.25  0.000270  (-0.009708 -0.000970  0.013209)
 75:   3108.34   0.001064    5.38  0.000107  (-0.006969  0.005783  0.004979)
 76:   3110.96   0.000788    3.98  0.000079  (-0.004358  0.006778  0.003758)
 77:   3115.06   0.002930   14.80  0.000293  ( 0.001160  0.014145  0.009594)
 78:   3128.71   0.000649    3.28  0.000065  ( 0.007357  0.003087 -0.001054)
 79:   3132.54   0.000532    2.69  0.000053  ( 0.000764  0.003121 -0.006534)
 80:   3172.30   0.000147    0.74  0.000014  (-0.001030  0.003404  0.001358)
 81:   3179.45   0.000407    2.06  0.000040  ( 0.004097 -0.003954 -0.002741)
 82:   3195.96   0.001756    8.88  0.000171  ( 0.009253  0.009127  0.001600)
 83:   3214.28   0.000446    2.26  0.000043  ( 0.003974 -0.004915 -0.001838)

* The epsilon (eps) is given for a Dirac delta lineshape.
** The dipole moment derivative (T) already includes vibrational overlap.

The first frequency considered to be a vibration is 6
The total number of vibrations considered is 78


--------------------------
THERMOCHEMISTRY AT 298.15K
--------------------------

Temperature         ...   298.15 K
Pressure            ...     1.00 atm
Total Mass          ...   348.19 AMU
Quasi RRHO          ...     True
Cut-Off Frequency   ...     1.00 cm^-1

Throughout the following assumptions are being made:
  (1) The electronic state is orbitally nondegenerate
  (2) There are no thermally accessible electronically excited states
  (3) Hindered rotations indicated by low frequency modes are not
      treated as such but are treated as vibrations and this may
      cause some error
  (4) All equations used are the standard statistical mechanics
      equations for an ideal gas
  (5) All vibrations are strictly harmonic

freq.      49.33  E(vib)   ...       0.52 
freq.      75.96  E(vib)   ...       0.49 
freq.      79.62  E(vib)   ...       0.49 
freq.      83.10  E(vib)   ...       0.48 
freq.     104.60  E(vib)   ...       0.46 
freq.     110.52  E(vib)   ...       0.45 
freq.     115.17  E(vib)   ...       0.44 
freq.     132.47  E(vib)   ...       0.42 
freq.     146.31  E(vib)   ...       0.41 
freq.     154.91  E(vib)   ...       0.40 
freq.     209.10  E(vib)   ...       0.34 
freq.     224.67  E(vib)   ...       0.33 
freq.     233.82  E(vib)   ...       0.32 
freq.     245.04  E(vib)   ...       0.31 
freq.     280.10  E(vib)   ...       0.28 
freq.     313.75  E(vib)   ...       0.25 
freq.     328.94  E(vib)   ...       0.24 
freq.     355.10  E(vib)   ...       0.22 
freq.     373.66  E(vib)   ...       0.21 
freq.     386.38  E(vib)   ...       0.20 
freq.     445.43  E(vib)   ...       0.17 
freq.     454.87  E(vib)   ...       0.16 
freq.     494.33  E(vib)   ...       0.14 
freq.     543.62  E(vib)   ...       0.12 
freq.     548.82  E(vib)   ...       0.12 
freq.     563.60  E(vib)   ...       0.11 
freq.     568.57  E(vib)   ...       0.11 
freq.     623.59  E(vib)   ...       0.09 
freq.     629.45  E(vib)   ...       0.09 
freq.     728.73  E(vib)   ...       0.06 
freq.     750.59  E(vib)   ...       0.06 
freq.     795.14  E(vib)   ...       0.05 
freq.     818.56  E(vib)   ...       0.05 
freq.     833.35  E(vib)   ...       0.04 
freq.     861.45  E(vib)   ...       0.04 
freq.     869.42  E(vib)   ...       0.04 
freq.     897.83  E(vib)   ...       0.03 
freq.     941.08  E(vib)   ...       0.03 
freq.     943.96  E(vib)   ...       0.03 
freq.     945.92  E(vib)   ...       0.03 
freq.     953.02  E(vib)   ...       0.03 
freq.     975.91  E(vib)   ...       0.03 
freq.    1063.77  E(vib)   ...       0.02 
freq.    1122.11  E(vib)   ...       0.01 
freq.    1145.72  E(vib)   ...       0.01 
freq.    1161.67  E(vib)   ...       0.01 
freq.    1190.22  E(vib)   ...       0.01 
freq.    1206.51  E(vib)   ...       0.01 
freq.    1210.12  E(vib)   ...       0.01 
freq.    1247.77  E(vib)   ...       0.01 
freq.    1285.34  E(vib)   ...       0.01 
freq.    1339.23  E(vib)   ...       0.01 
freq.    1354.50  E(vib)   ...       0.01 
freq.    1371.98  E(vib)   ...       0.01 
freq.    1379.97  E(vib)   ...       0.01 
freq.    1400.53  E(vib)   ...       0.00 
freq.    1414.88  E(vib)   ...       0.00 
freq.    1472.43  E(vib)   ...       0.00 
freq.    1482.41  E(vib)   ...       0.00 
freq.    1486.04  E(vib)   ...       0.00 
freq.    1489.02  E(vib)   ...       0.00 
freq.    1500.43  E(vib)   ...       0.00 
freq.    1512.05  E(vib)   ...       0.00 
freq.    1605.42  E(vib)   ...       0.00 
freq.    1626.26  E(vib)   ...       0.00 
freq.    2068.98  E(vib)   ...       0.00 
freq.    3022.28  E(vib)   ...       0.00 
freq.    3027.32  E(vib)   ...       0.00 
freq.    3035.31  E(vib)   ...       0.00 
freq.    3108.34  E(vib)   ...       0.00 
freq.    3110.96  E(vib)   ...       0.00 
freq.    3115.06  E(vib)   ...       0.00 
freq.    3128.71  E(vib)   ...       0.00 
freq.    3132.54  E(vib)   ...       0.00 
freq.    3172.30  E(vib)   ...       0.00 
freq.    3179.45  E(vib)   ...       0.00 
freq.    3195.96  E(vib)   ...       0.00 
freq.    3214.28  E(vib)   ...       0.00 

------------
INNER ENERGY
------------

The inner energy is: U= E(el) + E(ZPE) + E(vib) + E(rot) + E(trans)
    E(el)   - is the total energy from the electronic structure calculation
              = E(kin-el) + E(nuc-el) + E(el-el) + E(nuc-nuc)
    E(ZPE)  - the the zero temperature vibrational energy from the frequency calculation
    E(vib)  - the the finite temperature correction to E(ZPE) due to population
              of excited vibrational states
    E(rot)  - is the rotational thermal energy
    E(trans)- is the translational thermal energy

Summary of contributions to the inner energy U:
Electronic energy                ...  -1592.17871014 Eh
Zero point energy                ...      0.20678851 Eh     129.76 kcal/mol
Thermal vibrational correction   ...      0.01444951 Eh       9.07 kcal/mol
Thermal rotational correction    ...      0.00141627 Eh       0.89 kcal/mol
Thermal translational correction ...      0.00141627 Eh       0.89 kcal/mol
-----------------------------------------------------------------------
Total thermal energy                  -1591.95463958 Eh


Summary of corrections to the electronic energy:
(perhaps to be used in another calculation)
Total thermal correction                  0.01728206 Eh      10.84 kcal/mol
Non-thermal (ZPE) correction              0.20678851 Eh     129.76 kcal/mol
-----------------------------------------------------------------------
Total correction                          0.22407056 Eh     140.61 kcal/mol


--------
ENTHALPY
--------

The enthalpy is H = U + kB*T
                kB is Boltzmann's constant
Total thermal energy              ...  -1591.95463958 Eh 
Thermal Enthalpy correction       ...      0.00094421 Eh       0.59 kcal/mol
-----------------------------------------------------------------------
Total Enthalpy                    ...  -1591.95369537 Eh


Note: Only C1 symmetry has been detected, increase convergence thresholds 
      if your molecule has a higher symmetry. Symmetry factor of 1.0 is   
      used for the rotational entropy correction. 
 

Note: Rotational entropy computed according to Herzberg 
Infrared and Raman Spectra, Chapter V,1, Van Nostrand Reinhold, 1945 
Point Group:  C1, Symmetry Number:   1  
Rotational constants in cm-1:     0.016177     0.009938     0.008498 

Vibrational entropy computed according to the QRRHO of S. Grimme
Chem.Eur.J. 2012 18 9955 using a reference frequency of 100.0 cm-1


-------
ENTROPY
-------

The entropy contributions are T*S = T*(S(el)+S(vib)+S(rot)+S(trans))
     S(el)   - electronic entropy
     S(vib)  - vibrational entropy
     S(rot)  - rotational entropy
     S(trans)- translational entropy
The entropies will be listed as multiplied by the temperature to get
units of energy

Electronic entropy                ...      0.00000000 Eh      0.00 kcal/mol
Vibrational entropy               ...      0.02556980 Eh     16.05 kcal/mol
Rotational entropy                ...      0.01588570 Eh      9.97 kcal/mol
Translational entropy             ...      0.02063816 Eh     12.95 kcal/mol
-----------------------------------------------------------------------
Final entropy term                ...      0.06209365 Eh     38.96 kcal/mol

In case the symmetry of your molecule has not been determined correctly
or in case you have a reason to use a different symmetry number we print 
out the resulting rotational entropy values for sn=1,12:

 non-linear molecules -----------------------------------
|  sn= 1 | S(rot)=       0.01588570 Eh      9.97 kcal/mol|
|  sn= 2 | S(rot)=       0.01523124 Eh      9.56 kcal/mol|
|  sn= 3 | S(rot)=       0.01484841 Eh      9.32 kcal/mol|
|  sn= 4 | S(rot)=       0.01457678 Eh      9.15 kcal/mol|
|  sn= 5 | S(rot)=       0.01436610 Eh      9.01 kcal/mol|
|  sn= 6 | S(rot)=       0.01419395 Eh      8.91 kcal/mol|
|  sn= 7 | S(rot)=       0.01404840 Eh      8.82 kcal/mol|
|  sn= 8 | S(rot)=       0.01392233 Eh      8.74 kcal/mol|
|  sn= 9 | S(rot)=       0.01381112 Eh      8.67 kcal/mol|
|  sn=10 | S(rot)=       0.01371164 Eh      8.60 kcal/mol|
|  sn=11 | S(rot)=       0.01362165 Eh      8.55 kcal/mol|
|  sn=12 | S(rot)=       0.01353949 Eh      8.50 kcal/mol|
 linear molecules ---------------------------------------
|  Dinfh | S(rot)=       0.00982762 Eh      6.17 kcal/mol|
|  Cinfv | S(rot)=       0.01048208 Eh      6.58 kcal/mol|
 --------------------------------------------------------


-------------------
GIBBS FREE ENERGY
-------------------

The Gibbs free energy is G = H - T*S

Total enthalpy                    ...  -1591.95369537 Eh 
Total entropy correction          ...     -0.06209365 Eh    -38.96 kcal/mol
-----------------------------------------------------------------------
Final Gibbs free energy         ...  -1592.01578901 Eh

For completeness - the Gibbs free energy minus the electronic energy
G-E(el)                           ...      0.16292112 Eh    102.23 kcal/mol


Maximum memory used throughout the entire PROP-calculation: 75.5 MB

Timings for individual modules:

Sum of individual times          ...      354.856 sec (=   5.914 min)
Startup calculation              ...        4.102 sec (=   0.068 min)   1.2 %
SCF iterations                   ...       12.658 sec (=   0.211 min)   3.6 %
Property integrals               ...      172.489 sec (=   2.875 min)  48.6 %
SCF Response                     ...      112.269 sec (=   1.871 min)  31.6 %
Property calculations            ...       53.338 sec (=   0.889 min)  15.0 %
================================================================================

cite the ECPs for Ru [Def2-ECP] as follows:
Ce-Yb(ecp-28): M. Dolg, H. Stoll, H.Preuss, J. Chem. Phys., 1989, 90, 1730-1734.
Y-Cd(ecp-28), Hf-Hg(ecp-46): D. Andrae,U. Haeussermann, M. Dolg, H. Stoll, H. Preuss, Theor. Chim. Acta, 1990, 77, 123-141.
In-Sb(ecp-28), Tl-Bi(ecp-46): B. Metz, H. Stoll, M. Dolg, J. Chem. Phys., 2000, 113, 2563-2569.
Te-Xe(ecp-28), Po-Rn(ecp-46): K. A. Peterson, D. Figgen, E. Goll, H. Stoll, M. Dolg, J. Chem. Phys., 2003, 119, 11113-11123.
Rb(ecp-28), Cs(ecp-46): T. Leininger, A. Nicklass, W. Kuechle, H. Stoll, M. Dolg, A. Bergner, Chem. Phys. Lett., 1996, 255, 274-280.
Sr(ecp-28), Ba(ecp-46): M. Kaupp, P. V. Schleyer, H. Stoll and H. Preuss, J. Chem. Phys., 1991, 94, 1360-1366.
La(ecp-46): M. Dolg, H. Stoll, A. Savin, H. Preuss, Theor. Chim. Acta, 1989, 75, 173-194.
Lu(ecp-28): X. Cao, M. Dolg, J. Chem. Phys., 2001, 115, 7348-7355.

ECP parameters for Ru [Def2-ECP] have been obtained from:
TURBOMOLE (7.0.2)

----- Orbital basis set information -----
Your calculation utilizes the basis: def2-SVP
   F. Weigend and R. Ahlrichs, Phys. Chem. Chem. Phys. 7, 3297 (2005).


--------------------------------
SUGGESTED CITATIONS FOR THIS RUN
--------------------------------

Below you find a list of papers that are relevant to this ORCA run
We neither can nor want to force you to cite these papers, but we appreciate if you do
You receive ORCA, which is the product of decades of hard work by many enthusiastic individuals, for free
The only thing we kindly ask in return is that you cite our papers,
We deeply appreciate it, if you show your appreciation for ORCA by not just citing the generic ORCA reference.

Please note that relegating all ORCA citations to the supporting information does *not* help us.
SI sections are not indexed - citations you put there will not count into any citation statistics
But we need these citations in order to attract the funding resources that allow us to do what we are doing

Therefore, if you are a happy ORCA user, please consider citing a few of the papers listed below in the main body of your paper

In addition to the list printed below, the program has created the file cli48.bibtex that contains the list in bibtex format
You can import this file easily into all common literature databanks and citation aid programs


List of essential papers. We consider these as the minimum necessary citations

  1. Neese,F.
     Software update: the ORCA program system, version 5.0
     WIRES Comput. Molec. Sci., 2022 12(1)e1606
     doi.org/10.1002/wcms.1606
  2. Grimme,S.; Hansen,A.; Ehlert,S.; Mewes,J.
     r2SCAN-3c: A 'Swiss army knife' composite electronic-structure method
     J. Chem. Phys., 2021 154 064103
     doi.org/10.1063/5.0040021

List of papers to cite with high priority. The work reported in these papers was absolutely
necessary for this run to complete.
Our perspective: the developers of density functionals and basis sets usually get cited in chemistry papers
Good! But without the algorithms to do something with them, the functionals or basis sets would not do anything.
Hence, in our opinion, the algorithm design and method developments papers are equally worthy of getting cited

  1. Neese,F.
     An improvement of the resolution of the identity approximation for the formation of the Coulomb matrix
     J. Comp. Chem., 2003 24(14)1740-1747
     doi.org/10.1002/jcc.10318
  2. Bykov,D.; Petrenko,T.; Izsak,R.; Kossmann,S.; Becker,U.; Valeev,E.; Neese,F.
     Efficient implementation of the analytic second derivatives of Hartree-Fock and hybrid DFT energies: a detailed analysis of different approximations
     Molec. Phys., 2015 113 1961-1977
     doi.org/10.1080/00268976.2015.1025114
  3. Neese,F.
     The SHARK Integral Generation and Digestion System
     J. Comp. Chem., 2022  1-16
     doi.org/10.1002/jcc.26942
  4. Lehtola,S.; Steigemann,C.; Oliveira,M.; Marques,M.
     Recent developments in Libxc - A comprehensive library of functionals for density functional theory
     Software X, 2018 7 
     doi.org/10.1016/j.softx.2017.11.002
  5. Caldeweyher,E.; Bannwarth,C.; Grimme,S.
     Extension of the D3 dispersion coefficient model
     J. Chem. Phys., 2017 147 034112
     doi.org/10.1063/1.4993215
  6. Caldeweyher,E.; Ehlert,S.; Hansen,A.; Neugebauer,H.; Spicher,S.; Bannwarth,C.; Grimme,S.
     A generally applicable atomic-charge dependent London dispersion correction
     J. Chem. Phys., 2019 150 154122
     doi.org/10.1063/1.5090222
  7. Caldeweyher,E.; Mewes,J.; Ehlert,S.; Grimme,S.
     Extension and evaluation of the D4 London-dispersion model for periodic systems
     Phys. Chem. Chem. Phys., 2020 22(16)8499-8512
     doi.org/10.1039/D0CP00502A
  8. Wittmann,L.; Gordiy,I.; Friede,M.; Helmich-Paris,B.; Grimme,S.; Hansen,A.; Bursch,M.
     Extension of the D3 and D4 London Dispersion Corrections to the full Actinides Series
     Phys. Chem. Chem. Phys., 2024 26(32)21379-21394
     doi.org/https://doi.org/10.1039/D4CP01514B 

List of suggested additional citations. These are papers that are important in the 'surrounding' of 
of this run, or papers that preceded the highly important papers. If you like your results we are grateful for a citation.

  1. Neese,F.
     The ORCA program system
     WIRES Comput. Molec. Sci., 2012 2(1)73-78
     doi.org/10.1002/wcms.81
  2. Neese,F.
     Software update: the ORCA program system, version 4.0
     WIRES Comput. Molec. Sci., 2018 8(1)1-6
     doi.org/10.1002/wcms.1327
  3. Neese,F.; Wennmohs,F.; Becker,U.; Riplinger,C.
     The ORCA quantum chemistry program package
     J. Chem. Phys., 2020 152 Art. No. L224108
     doi.org/10.1063/5.0004608

List of optional additional citations

  1. Neese,F.
     Approximate second-order SCF convergence for spin unrestricted wavefunctions
     Chem. Phys. Lett., 2000 325(1-3)93-98
     doi.org/10.1016/s0009-2614(00)00662-x
                             ****ORCA TERMINATED NORMALLY****
TOTAL RUN TIME: 0 days 0 hours 8 minutes 35 seconds 91 msec
7719.47user 552.02system 8:36.23elapsed 1602%CPU (0avgtext+0avgdata 739112maxresident)k
176548996inputs+9820900outputs (363835major+31933915minor)pagefaults 0swaps
