59
 energy: -10.170927189228 gnorm: 0.099789252471 xtb: 6.7.1 (f811460) iter: 1
Ru           0.00000000000000        0.00000000000000        0.00000000000000
Cl           0.00000000000000        0.00000000000000        2.19270000000000
Cl           1.32640000000000        0.00000000000000       -1.79750000000000
C           -1.23990000000000       -1.31230000000000       -0.40950000000000
H           -2.26970000000000       -1.31300000000000       -0.75350000000000
H           -0.82460000000000       -2.32650000000000       -0.26940000000000
C           -0.97150000000000        1.78920000000000       -0.33090000000000
N           -0.56370000000000        3.02730000000000       -0.20510000000000
C            0.68270000000000        3.54640000000000        0.30650000000000
C            0.78700000000000        3.88040000000000        1.66630000000000
C            1.92080000000000        4.52870000000000        2.11760000000000
H            1.98610000000000        4.81060000000000        3.15470000000000
C            2.95970000000000        4.81370000000000        1.25740000000000
H            3.83530000000000        5.32590000000000        1.62160000000000
C            2.89060000000000        4.41730000000000       -0.06170000000000
H            3.71470000000000        4.61700000000000       -0.72500000000000
C            1.77470000000000        3.76230000000000       -0.55020000000000
C            1.75840000000000        3.25600000000000       -1.96390000000000
H            1.78160000000000        4.11360000000000       -2.64720000000000
H            0.80270000000000        2.75210000000000       -2.14850000000000
C            2.89840000000000        2.29760000000000       -2.28090000000000
H            2.87810000000000        1.42870000000000       -1.62170000000000
H            3.87040000000000        2.77610000000000       -2.15110000000000
H            2.84880000000000        1.92880000000000       -3.30770000000000
C           -0.28840000000000        3.48920000000000        2.63670000000000
H           -1.15020000000000        3.10740000000000        2.07870000000000
H           -0.64250000000000        4.38700000000000        3.15850000000000
C            0.16440000000000        2.43560000000000        3.63480000000000
H            1.00980000000000        2.78800000000000        4.22800000000000
H            0.48630000000000        1.52660000000000        3.12390000000000
H           -0.63360000000000        2.15850000000000        4.32700000000000
C           -1.61320000000000        4.01080000000000       -0.72260000000000
C           -2.79940000000000        3.11150000000000       -1.18030000000000
H           -2.97930000000000        3.21160000000000       -2.25310000000000
H           -3.72680000000000        3.40460000000000       -0.68060000000000
C           -2.40550000000000        1.64880000000000       -0.80680000000000
C           -2.51410000000000        0.72040000000000       -2.02530000000000
C           -1.93650000000000        1.08780000000000       -3.23270000000000
H           -1.41590000000000        2.02630000000000       -3.30200000000000
C           -1.97630000000000        0.24950000000000       -4.32850000000000
H           -1.50900000000000        0.54770000000000       -5.25280000000000
C           -2.58970000000000       -0.98100000000000       -4.23480000000000
H           -2.61010000000000       -1.64270000000000       -5.08570000000000
C           -3.16050000000000       -1.36890000000000       -3.04190000000000
H           -3.62700000000000       -2.33730000000000       -2.95820000000000
C           -3.12300000000000       -0.52630000000000       -1.94970000000000
H           -3.56000000000000       -0.85310000000000       -1.02290000000000
C           -3.29700000000000        1.18660000000000        0.36140000000000
H           -3.24450000000000        1.89470000000000        1.18750000000000
H           -2.97750000000000        0.21890000000000        0.74340000000000
H           -4.33800000000000        1.10820000000000        0.05020000000000
C           -1.07100000000000        4.81730000000000       -1.90360000000000
H           -0.76480000000000        4.16640000000000       -2.71930000000000
H           -0.21020000000000        5.41220000000000       -1.60160000000000
H           -1.83040000000000        5.49680000000000       -2.29020000000000
C           -2.07360000000000        4.96610000000000        0.37870000000000
H           -1.23340000000000        5.53610000000000        0.77250000000000
H           -2.54020000000000        4.42490000000000        1.19940000000000
H           -2.80820000000000        5.67280000000000       -0.00700000000000
59
 energy: -10.191750711673 gnorm: 0.021998277997 xtb: 6.7.1 (f811460) iter: 2
Ru           0.03536360018194       -0.00085496492732        0.01130109384088
Cl           0.05648655127777       -0.00057476369340        2.20481964820024
Cl           1.33854833376541        0.00407238070867       -1.80278048553941
C           -1.15510280059784       -1.38558639710279       -0.35490256612473
H           -2.15677962707330       -1.43238090100118       -0.66947709155061
H           -0.72855254157080       -2.36014827720015       -0.21599453434104
C           -0.98749715445519        1.76283321240548       -0.32726356106608
N           -0.56830525076245        3.00558281904367       -0.20811486051373
C            0.68127037969335        3.52957922240706        0.30605912839150
C            0.78452006795778        3.87555687664019        1.66500694144983
C            1.91807849384442        4.52699374168537        2.11526087218699
H            1.98405295242114        4.80888935777766        3.15260172769087
C            2.95777151855058        4.81032143498716        1.25612207481449
H            3.83289609067731        5.32430409388287        1.61987633325391
C            2.88780879086984        4.41398061861732       -0.06247786564303
H            3.71106475420086        4.61628781002113       -0.72637152944844
C            1.77309796978884        3.75512119768480       -0.55047411616114
C            1.75918479017713        3.25693722212781       -1.96572055799686
H            1.77837909749145        4.11657405229769       -2.64655920890117
H            0.80573551152334        2.74881510542571       -2.15107590678708
C            2.90614109476169        2.30754250937680       -2.28276519816855
H            2.89299875222402        1.44254424513635       -1.61799782168401
H            3.87579654095304        2.78965658895916       -2.15677419519320
H            2.85405983737045        1.93181955520201       -3.30722846159784
C           -0.29015167670662        3.49383080274537        2.63912254743554
H           -1.15019191907613        3.10359280787818        2.08392617380408
H           -0.64699717516119        4.39493604247834        3.15234203554741
C            0.16843210161200        2.45646343066445        3.64999792346617
H            1.00726916093259        2.81621375427578        4.24538165104607
H            0.51121240946928        1.55001737449645        3.14335201289486
H           -0.63114644941101        2.16661463735719        4.33524805239668
C           -1.61208118177105        4.00156944244766       -0.72236388771433
C           -2.80288546913255        3.11190284981662       -1.18050158530858
H           -2.98249003111274        3.21602505282283       -2.25294533067062
H           -3.72786635815015        3.40931380707512       -0.67983425735073
C           -2.42197520771224        1.64519715296776       -0.81317968012982
C           -2.55030686006149        0.73909242096604       -2.04867795969473
C           -1.93226837090317        1.08983296369027       -3.23967178579561
H           -1.40327351007931        2.02379367249576       -3.30220687352056
C           -1.97282588061590        0.25315539211062       -4.33716448254370
H           -1.48885223172269        0.54509281903426       -5.25415729527046
C           -2.59557984682525       -0.97397914115283       -4.25072399837822
H           -2.59256051576146       -1.64547509500320       -5.09351145479550
C           -3.20884392640515       -1.34397219198714       -3.07510192811452
H           -3.67309069775918       -2.31345618545373       -2.98813138792597
C           -3.22708505884944       -0.47562753536218       -2.00390932318161
H           -3.75187299271108       -0.76749390792036       -1.10095724151947
C           -3.30724725064673        1.18770560950000        0.36032845248504
H           -3.24882438431238        1.89791332651561        1.18432725534249
H           -2.98539018390921        0.22210188262297        0.74626519060446
H           -4.34888190456170        1.10900269495134        0.05398511721690
C           -1.06945129233779        4.81252064552246       -1.90159286085705
H           -0.76392383740552        4.16423601084590       -2.71970911228473
H           -0.20895215810970        5.40763919922185       -1.59868135422017
H           -1.82890752480118        5.49358180934263       -2.28623095325682
C           -2.07029763261188        4.96084602436592        0.37877766191873
H           -1.22987062928850        5.53111681939316        0.77202019863163
H           -2.53832311723372        4.42267563999621        1.20069261243225
H           -2.80381615013843        5.66905323081682       -0.00748399180104
59
 energy: -10.196534651999 gnorm: 0.012430821147 xtb: 6.7.1 (f811460) iter: 3
Ru           0.04843627255570       -0.01582227897947        0.00313379594936
Cl           0.11324856842468        0.00023741868698        2.19707208237098
Cl           1.32402733897868       -0.00192421835518       -1.83144511549513
C           -1.13503022052874       -1.41491302605726       -0.34073567427803
H           -2.14649186612661       -1.46496027102971       -0.64296924229308
H           -0.69718392438691       -2.38041453105703       -0.20373038706023
C           -1.00128924035984        1.73305495046976       -0.32743375268102
N           -0.57079107209112        2.97559607803690       -0.21120483172955
C            0.67949871893402        3.50359637217223        0.30549618156824
C            0.77982493161870        3.86578303722330        1.66211580797845
C            1.91111466210050        4.52329589595330        2.11026067108278
H            1.97662210293211        4.80721552519835        3.14709704325424
C            2.95180591471976        4.80443945065099        1.25275040119582
H            3.82560700015917        5.32146677077770        1.61560599882060
C            2.88144568391556        4.40684207297587       -0.06459403614576
H            3.70264681923588        4.61368297440408       -0.72967835363458
C            1.76969564583989        3.74168756260613       -0.55105094201785
C            1.76069481764379        3.25504315136610       -1.96904423404854
H            1.76662482311988        4.11925840135561       -2.64477112626899
H            0.81471707658375        2.73338314674259       -2.15616480266549
C            2.92566753154245        2.32879792310454       -2.28880413611289
H            2.93562803050522        1.47093192725190       -1.61412379872897
H            3.88739368585537        2.82956274768105       -2.17420462209635
H            2.87081233523033        1.94114324720519       -3.30882697928840
C           -0.29429938690400        3.49996103623873        2.64232588884434
H           -1.14804701403340        3.08516490635555        2.09429949692962
H           -0.66272166088188        4.41062764382750        3.13120696386289
C            0.17804419198606        2.49993788903565        3.68489844600240
H            0.99663993400924        2.89359526492705        4.28839949574602
H            0.56437194673370        1.59685125161535        3.19955448997111
H           -0.62564518735005        2.19272682891865        4.35826863117628
C           -1.60825787635487        3.98401338313021       -0.71912250008329
C           -2.80621328129012        3.10733000433890       -1.17770139611902
H           -2.98579442661942        3.21690535192940       -2.24988130214435
H           -3.72828787035790        3.41178770409082       -0.67574093686072
C           -2.43647493225724        1.63640047059542       -0.81547747715145
C           -2.57142895997287        0.74367813442099       -2.05892851305828
C           -1.92446934246811        1.08683282815745       -3.23832852292367
H           -1.37862822265347        2.01241049496018       -3.28962269171351
C           -1.95961863286794        0.25306755106747       -4.33813183013292
H           -1.45748021250714        0.54067754369304       -5.24763087048339
C           -2.60374306725233       -0.96431363649173       -4.26471751795741
H           -2.59405212114794       -1.63587347684928       -5.10764590801587
C           -3.25307059370487       -1.32264606409722       -3.10270773091844
H           -3.72770255969719       -2.28751358482200       -3.02215727067447
C           -3.28132908402243       -0.45325068904131       -2.03248129138200
H           -3.81010288405596       -0.74322986904466       -1.13802235427921
C           -3.32209397242526        1.18246849293342        0.35856891077250
H           -3.25596915205726        1.89191274718790        1.18298080860726
H           -3.00409496124363        0.21502302207944        0.74333347170806
H           -4.36557367935307        1.11156251688390        0.05611571447883
C           -1.06426217159378        4.79883193498725       -1.89582646707902
H           -0.76127300695047        4.15403701346870       -2.71768796301903
H           -0.20288003523094        5.39195022138885       -1.59139508661437
H           -1.82263807355651        5.48349351356390       -2.27662766577705
C           -2.06041360978397        4.94652209791277        0.38271325685413
H           -1.21778636669884        5.51462004564932        0.77430611819438
H           -2.53071050870731        4.41232237850396        1.20584490738311
H           -2.79101885513075        5.65803072010091       -0.00363125181942
59
 energy: -10.200255284684 gnorm: 3379519.943655868061 xtb: 6.7.1 (f811460) iter: 4
Ru           0.06885217208152       -0.02060836819600       -0.00802647022530
Cl           0.18692524201617        0.02808288456153        2.18493097433193
Cl           1.30643221575506        0.00513425432425       -1.86938867687628
C           -1.10480186257985       -1.43614860932431       -0.32120824035015
H           -2.13025470577778       -1.48233796710905       -0.60673764605732
H           -0.64923763156038       -2.39472227271899       -0.18666946742412
C           -1.01956890682584        1.70450988788494       -0.33002326853935
N           -0.57387531550700        2.94244579098991       -0.21836900221008
C            0.67575839636659        3.47239929885140        0.30222098895825
C            0.77340320847229        3.84864106303186        1.65598882785763
C            1.90105722491023        4.51391689644158        2.10277662354466
H            1.96408526373777        4.80251374022708        3.13843459679873
C            2.94195642448423        4.79677334754252        1.24738921891411
H            3.81387698620201        5.31730050791167        1.60977868515763
C            2.87203845000227        4.39686517049129       -0.06826599097345
H            3.69106866007344        4.60892339205508       -0.73428956682330
C            1.76421884464733        3.72396367063209       -0.55290111406498
C            1.76207833039350        3.25064830892293       -1.97441852668419
H            1.74935662123346        4.12041250593502       -2.64365916525871
H            0.82664790768779        2.71028544207031       -2.16349896031005
C            2.94962478082001        2.35418633956085       -2.29937966242240
H            2.98924378667418        1.50475019845715       -1.61387039459822
H            3.90062234363055        2.88022247036969       -2.19990426714229
H            2.89172543135907        1.95334428247642       -3.31399543040971
C           -0.29994210442020        3.49951450125732        2.64307599697172
H           -1.14422794882753        3.05230208296710        2.10436419723275
H           -0.68501235639314        4.42182463225072        3.09969156448738
C            0.18688855816703        2.54561923175658        3.72544552293278
H            0.98035019959516        2.98320659871736        4.33696556843317
H            0.61860748435563        1.64674700744213        3.27257841572008
H           -0.62088186602842        2.22519421137916        4.38739607904710
C           -1.60404336165876        3.96390133115108       -0.71606280001685
C           -2.81141720435126        3.10221416714464       -1.17358645391659
H           -2.99153410604819        3.21710272558785       -2.24542318568504
H           -3.72979110141845        3.41548550408214       -0.66990244406796
C           -2.45526416395089        1.62682790722198       -0.81694211817286
C           -2.59393649704345        0.74568889358164       -2.06649965116706
C           -1.90935311561505        1.07832447128739       -3.22984315830131
H           -1.33812718754405        1.99037989297927       -3.26450296411183
C           -1.93534959038086        0.24862278633185       -4.33251572832823
H           -1.40864199361979        0.53025011437532       -5.23113387712920
C           -2.61353873242447       -0.95215029813225       -4.27874013357996
H           -2.60028791400001       -1.62097511590503       -5.12384368950140
C           -3.31058741836385       -1.29458032474633       -3.13621780226317
H           -3.80534000750451       -2.25054238774065       -3.06823752511656
C           -3.33926103385170       -0.43020589977572       -2.06148658855580
H           -3.89409680735677       -0.70904222508291       -1.18207613025118
C           -3.34324119591442        1.17349595333795        0.35535970668603
H           -3.26745069518145        1.87871071833381        1.18292945612859
H           -3.03214782996647        0.20141633819825        0.73451596556307
H           -4.38915864489094        1.11547590654326        0.05712752021232
C           -1.05698065207052        4.78079671254643       -1.88980771102828
H           -0.75827600015522        4.13883245840540       -2.71548116914568
H           -0.19351603164249        5.36977493693507       -1.58332767222363
H           -1.81266602054968        5.47079786897222       -2.26615486804141
C           -2.04575437882080        4.92688383343325        0.38992185994383
H           -1.19912791718405        5.49057916770128        0.77902263561060
H           -2.51751416710747        4.39529407238779        1.21386885537883
H           -2.77291206612913        5.64362998968602        0.00670826106210
