      -----------------------------------------------------------      
     |                   =====================                   |     
     |                           x T B                           |     
     |                   =====================                   |     
     |                         S. Grimme                         |     
     |          Mulliken Center for Theoretical Chemistry        |     
     |                    University of Bonn                     |     
      -----------------------------------------------------------      

   * xtb version 6.7.1 (edcfbbe) compiled by 'albert@albert-system' on 2024-07-22

   xtb is free software: you can redistribute it and/or modify it under
   the terms of the GNU Lesser General Public License as published by
   the Free Software Foundation, either version 3 of the License, or
   (at your option) any later version.
   
   xtb is distributed in the hope that it will be useful,
   but WITHOUT ANY WARRANTY; without even the implied warranty of
   MERCHANTABILITY or FITNESS FOR A PARTICULAR PURPOSE.  See the
   GNU Lesser General Public License for more details.
   
   Cite this work as:
   * C. Bannwarth, E. Caldeweyher, S. Ehlert, A. Hansen, P. Pracht,
     J. Seibert, S. Spicher, S. Grimme, WIREs Comput. Mol. Sci., 2020, 11,
     e01493. DOI: 10.1002/wcms.1493
   
   for GFN2-xTB:
   * C. Bannwarth, S. Ehlert and S. Grimme., J. Chem. Theory Comput., 2019,
     15, 1652-1671. DOI: 10.1021/acs.jctc.8b01176
   for GFN1-xTB:
   * S. Grimme, C. Bannwarth, P. Shushkov, J. Chem. Theory Comput., 2017,
     13, 1989-2009. DOI: 10.1021/acs.jctc.7b00118
   for GFN0-xTB:
   * P. Pracht, E. Caldeweyher, S. Ehlert, S. Grimme, ChemRxiv, 2019, preprint.
     DOI: 10.26434/chemrxiv.8326202.v1
   for GFN-FF:
   * S. Spicher and S. Grimme, Angew. Chem. Int. Ed., 2020, 59, 15665-15673.
     DOI: 10.1002/anie.202004239
   
   for ALPB and GBSA implicit solvation:
   * S. Ehlert, M. Stahn, S. Spicher, S. Grimme, J. Chem. Theory Comput.,
     2021, 17, 4250-4261. DOI: 10.1021/acs.jctc.1c00471
   
   for ddCOSMO and CPCM-X implicit solvation:
   * M. Stahn, S. Ehlert, S. Grimme, J. Phys. Chem. A,
     2023, XX, XXXX-XXXX. DOI: 10.1021/acs.jpca.3c04382
   
   for DFT-D4:
   * E. Caldeweyher, C. Bannwarth and S. Grimme, J. Chem. Phys., 2017,
     147, 034112. DOI: 10.1063/1.4993215
   * E. Caldeweyher, S. Ehlert, A. Hansen, H. Neugebauer, S. Spicher,
     C. Bannwarth and S. Grimme, J. Chem. Phys., 2019, 150, 154122.
     DOI: 10.1063/1.5090222
   * E. Caldeweyher, J.-M. Mewes, S. Ehlert and S. Grimme, Phys. Chem. Chem. Phys.
     2020, 22, 8499-8512. DOI: 10.1039/D0CP00502A
   
   for sTDA-xTB:
   * S. Grimme and C. Bannwarth, J. Chem. Phys., 2016, 145, 054103.
     DOI: 10.1063/1.4959605
   
   in the mass-spec context:
   * V. Asgeirsson, C. Bauer and S. Grimme, Chem. Sci., 2017, 8, 4879.
     DOI: 10.1039/c7sc00601b
   * J. Koopman and S. Grimme, ACS Omega 2019, 4, 12, 15120-15133.
     DOI: 10.1021/acsomega.9b02011
   
   for metadynamics refer to:
   * S. Grimme, J. Chem. Theory Comput., 2019, 155, 2847-2862
     DOI: 10.1021/acs.jctc.9b00143
   
   for SPH calculations refer to:
   * S. Spicher and S. Grimme, J. Chem. Theory Comput., 2021, 17, 1701-1714
     DOI: 10.1021/acs.jctc.0c01306
   
   for ONIOM refer to:
   * C. Plett, A. Katbashev, S. Ehlert, S. Grimme, M. Bursch,
     Phys. Chem. Chem. Phys., 2023, 25, 17860-17868. DOI: 10.1039/D3CP02178E
   
   for DIPRO refer to:
   * J. Kohn, N. Gildemeister, S. Grimme, D. Fazzi, A. Hansen,
     J. Chem. Phys., 2023, just accepted.
   
   for PTB refer to:
   * S. Grimme, M. Mueller, A. Hansen, J. Chem. Phys., 2023, 158, 124111.
     DOI: 10.1063/5.0137838
   
   with help from (in alphabetical order)
   P. Atkinson, C. Bannwarth, F. Bohle, G. Brandenburg, E. Caldeweyher
   M. Checinski, S. Dohm, S. Ehlert, S. Ehrlich, I. Gerasimov, C. Hölzer
   A. Katbashev, J. Kohn, J. Koopman, C. Lavigne, S. Lehtola, F. März, M. Müller,
   F. Musil, H. Neugebauer, J. Pisarek, C. Plett, P. Pracht, F. Pultar,
   J. Seibert, P. Shushkov, S. Spicher, M. Stahn, M. Steiner, T. Strunk,
   J. Stückrath, T. Rose, and J. Unsleber
   
 * started run on 2026/02/05 at 16:53:41.894     
   ID    Z sym.   atoms
    1    1 H      1, 3, 9, 11, 12, 14, 15, 17, 18, 20, 21, 23, 24, 26, 28,
                  29, 31, 32, 34, 35, 37, 38, 40, 41, 43, 45, 46, 48, 49, 51,
                  52, 54, 55, 57, 58, 60, 61, 67, 69, 70, 72, 73, 75, 76, 78,
                  79, 81, 82, 84, 86, 87, 89, 90, 92, 93, 95, 96, 98, 99,
                  101, 103, 104, 106, 107, 109, 110, 112, 113, 115, 116
    2    6 C      2, 8, 10, 13, 16, 19, 22, 25, 27, 30, 33, 36, 39, 42, 44,
                  47, 50, 53, 56, 59, 66, 68, 71, 74, 77, 80, 83, 85, 88, 91,
                  94, 97, 100, 102, 105, 108, 111, 114
    3   44 Ru     4, 62
    4   17 Cl     5, 6, 63, 64
    5   15 P      7, 65
constraining bond 4 2 to    1.8750608 Å, actual value:    1.8750610 Å
constraining bond 2 59 to    8.9959706 Å, actual value:    8.9959212 Å
constraining bond 4 5 to    2.2812199 Å, actual value:    2.2812201 Å
constraining bond 4 6 to    2.3271743 Å, actual value:    2.3271745 Å
constraining bond 4 7 to    2.3333536 Å, actual value:    2.3333539 Å
constraining bond 4 62 to    7.0686364 Å, actual value:    7.0686957 Å
constraining bond 62 59 to    1.8747674 Å, actual value:    1.8747676 Å
constraining bond 62 63 to    2.3146581 Å, actual value:    2.3146583 Å
constraining bond 62 64 to    2.2943999 Å, actual value:    2.2944001 Å
constraining bond 62 65 to    2.3203382 Å, actual value:    2.3203384 Å
constraining angle 2 4 5 to  105.4987319°, actual value:  105.4987319°
constraining angle 2 4 6 to  100.8524342°, actual value:  100.8524342°
constraining angle 2 4 7 to   97.5259563°, actual value:   97.5259563°
constraining angle 2 4 62 to  119.2434445°, actual value:  119.2434445°
constraining angle 5 4 6 to  151.4204329°, actual value:  151.4204329°
constraining angle 5 4 7 to   89.2959195°, actual value:   89.2959195°
constraining angle 5 4 62 to  112.9993700°, actual value:  112.9993700°
constraining angle 6 4 7 to   98.1197347°, actual value:   98.1197347°
constraining angle 6 4 62 to   41.9731848°, actual value:   41.9731848°
constraining angle 7 4 62 to  127.0005498°, actual value:  127.0005498°
constraining angle 4 62 59 to  121.9984329°, actual value:  121.9984329°
constraining angle 4 62 63 to   41.7016288°, actual value:   41.7016288°
constraining angle 4 62 64 to  114.4210695°, actual value:  114.4210695°
constraining angle 4 62 65 to  120.0106340°, actual value:  120.0106340°
constraining angle 59 62 63 to  107.1319158°, actual value:  107.1319158°
constraining angle 59 62 64 to   98.8768649°, actual value:   98.8768649°
constraining angle 59 62 65 to  100.6412584°, actual value:  100.6412584°
constraining angle 63 62 64 to  151.9796014°, actual value:  151.9796014°
constraining angle 63 62 65 to   89.3443745°, actual value:   89.3443745°
constraining angle 64 62 65 to   96.0484625°, actual value:   96.0484625°
constraining angle 5 4 2 1 to   92.2152945°, actual value:   92.2152945°
constraining angle 6 4 2 1 to  -76.6119514°, actual value:  -76.6119514°
constraining angle 7 4 2 1 to -176.4225181°, actual value: -176.4225181°
constraining angle 5 4 2 3 to  -86.1315558°, actual value:  -86.1315558°
constraining angle 6 4 2 3 to  105.0411983°, actual value:  105.0411983°
constraining angle 7 4 2 3 to    5.2306316°, actual value:    5.2306316°
constraining angle 63 62 59 60 to  -80.7055481°, actual value:  -80.7055481°
constraining angle 64 62 59 60 to   88.7492507°, actual value:   88.7492507°
constraining angle 65 62 59 60 to -173.3268168°, actual value: -173.3268168°
constraining angle 63 62 59 61 to  101.9056953°, actual value:  101.9056953°
constraining angle 64 62 59 61 to  -88.6395058°, actual value:  -88.6395058°
constraining angle 65 62 59 61 to    9.2844267°, actual value:    9.2844267°

           -------------------------------------------------
          |                Calculation Setup                |
           -------------------------------------------------

          program call               : xtb step_geom.sdf --input step_0.0.xcontrol --gfnff --opt
          hostname                   : c1-10
          coordinate file            : step_geom.sdf
          omp threads                :                    20


molecular fragmentation (1/2 indicates fragments):
111111111111111111111111111111111111111111111111111111111122222222222222
22222222222222222222222222222222222222222222
# atoms in fragment 1/2:    58    58
 fragment masses (1/2) :      466.43      466.43
CMA distance (Bohr)    :  17.992
constraining FC (au)   :  1.5000
########################################################################
[WARNING] Please study the warnings concerning your input carefully
-1- set_rdsetbl: Set-blocks will become obsolete in xtb 6.0 and newer
########################################################################
 
          ==================== Thresholds ====================
          CN  :   150.00000
          rep :   500.00000
          disp:  2500.00000
          HB1 :   250.00000
          HB2 :   450.00000
 
          Pauling EN used:
          Z : 1  EN :  2.20
          Z : 6  EN :  2.55
          Z :15  EN :  2.19
          Z :17  EN :  3.16
          Z :44  EN :  2.20
          electric field strengths (au): 0.000
 
           ------------------------------------------------- 
          |           Force Field Initialization            |
           ------------------------------------------------- 
 
          distances ...
          ----------------------------------------
          generating topology and atomic info file ...
          pair mat ...
          computing topology distances matrix with Floyd-Warshall algo ...
          making topology EEQ charges ...
          #fragments for EEQ constrain: 1
          ----------------------------------------
          generating topology and atomic info file ...
          pair mat ...
          computing topology distances matrix with Floyd-Warshall algo ...
          making topology EEQ charges ...
          #fragments for EEQ constrain: 1
          rings ...
          # BATM   1958
          # H in HB   0
 
  atom   neighbors  erfCN metchar sp-hybrid imet pi  qest     coordinates
    1  H       1    0.97   0.00         0    0    0   0.031    0.000000    0.000000    0.000000
    2  C       4    2.78   0.00         3    0    0  -0.075    0.000000    0.000000    2.066416
    3  H       1    0.97   0.00         0    0    0   0.031    1.895017    0.000000    2.872951
    4  Ru      5    3.46   0.00         0    2    0   0.339   -3.067592   -0.076912    3.838223
    5  Cl      1    1.00   0.00         0    0    0  -0.255   -3.880553   -4.249616    4.553295
    6  Cl      1    0.95   0.00         0    0    0  -0.255   -4.389645    4.092958    3.386200
    7  P       4    3.71   0.02         3    0    0  -0.003   -1.393484    0.237917    7.905291
    8  C       4    3.49   0.00         3    0    0  -0.029    0.977744    2.767504    8.588805
    9  H       1    0.98   0.01         0    0    0   0.025    2.799062    1.797696    8.358637
   10  C       4    3.53   0.00         3    0    0  -0.039    0.877778    4.887777    6.625947
   11  H       1    0.97   0.00         0    0    0   0.026    0.888927    4.082564    4.723181
   12  H       1    0.97   0.00         0    0    0   0.026   -0.869085    5.962464    6.844399
   13  C       4    3.49   0.00         3    0    0  -0.041    3.123717    6.664497    6.963641
   14  H       1    0.97   0.00         0    0    0   0.027    4.878895    5.620423    6.659395
   15  H       1    0.97   0.00         0    0    0   0.027    3.033199    8.170798    5.557874
   16  C       4    3.49   0.00         3    0    0  -0.037    3.123150    7.792475    9.616249
   17  H       1    0.97   0.00         0    0    0   0.026    1.433357    8.951822    9.864559
   18  H       1    0.97   0.00         0    0    0   0.026    4.767968    9.011915    9.868339
   19  C       4    3.49   0.00         3    0    0  -0.041    3.141103    5.696768   11.594415
   20  H       1    0.97   0.00         0    0    0   0.027    3.079309    6.515209   13.488109
   21  H       1    0.97   0.00         0    0    0   0.027    4.892690    4.615089   11.432654
   22  C       4    3.51   0.00         3    0    0  -0.039    0.883447    3.931008   11.233099
   23  H       1    0.97   0.00         0    0    0   0.026   -0.851889    5.022703   11.454386
   24  H       1    0.97   0.00         0    0    0   0.026    0.922186    2.478376   12.693857
   25  C       4    3.49   0.00         3    0    0  -0.029    0.192563   -2.702686    9.012860
   26  H       1    0.98   0.01         0    0    0   0.025   -1.297486   -4.142280    8.941428
   27  C       4    3.51   0.00         3    0    0  -0.039    1.275376   -2.608389   11.686444
   28  H       1    0.97   0.00         0    0    0   0.026    2.825330   -1.250243   11.770915
   29  H       1    0.97   0.00         0    0    0   0.026   -0.172910   -2.037692   13.040622
   30  C       4    3.49   0.00         3    0    0  -0.041    2.291671   -5.211865   12.414556
   31  H       1    0.97   0.00         0    0    0   0.027    3.059845   -5.145535   14.329415
   32  H       1    0.97   0.00         0    0    0   0.027    0.747387   -6.581349   12.398115
   33  C       4    3.49   0.00         3    0    0  -0.037    4.332197   -6.051281   10.560545
   34  H       1    0.97   0.00         0    0    0   0.026    5.921835   -4.736221   10.650118
   35  H       1    0.97   0.00         0    0    0   0.026    5.030262   -7.920787   11.082488
   36  C       4    3.49   0.00         3    0    0  -0.041    3.281320   -6.106839    7.877134
   37  H       1    0.97   0.00         0    0    0   0.027    1.769351   -7.505614    7.759026
   38  H       1    0.97   0.00         0    0    0   0.027    4.760409   -6.661852    6.550358
   39  C       4    3.54   0.00         3    0    0  -0.039    2.232900   -3.523016    7.137307
   40  H       1    0.97   0.00         0    0    0   0.026    3.771137   -2.145595    7.101591
   41  H       1    0.97   0.00         0    0    0   0.026    1.404444   -3.626762    5.243990
   42  C       4    3.49   0.00         3    0    0  -0.029   -4.005086    0.689750   10.230221
   43  H       1    0.97   0.01         0    0    0   0.025   -3.151496    1.137804   12.064390
   44  C       4    3.54   0.00         3    0    0  -0.039   -5.671068    2.896761    9.392695
   45  H       1    0.97   0.00         0    0    0   0.026   -4.539122    4.595814    9.079000
   46  H       1    0.97   0.00         0    0    0   0.026   -6.596467    2.408645    7.603124
   47  C       4    3.49   0.00         3    0    0  -0.041   -7.738051    3.421727   11.327207
   48  H       1    0.97   0.00         0    0    0   0.027   -8.890972    5.006262   10.684512
   49  H       1    0.97   0.00         0    0    0   0.027   -6.887107    3.934977   13.138699
   50  C       4    3.49   0.00         3    0    0  -0.037   -9.385514    1.080167   11.644870
   51  H       1    0.97   0.00         0    0    0   0.026  -10.339070    0.688616    9.856622
   52  H       1    0.97   0.00         0    0    0   0.026  -10.840603    1.420507   13.067645
   53  C       4    3.49   0.00         3    0    0  -0.041   -7.773955   -1.184858   12.411154
   54  H       1    0.97   0.00         0    0    0   0.027   -6.946066   -0.829212   14.271212
   55  H       1    0.97   0.00         0    0    0   0.027   -8.953522   -2.872573   12.564789
   56  C       4    3.52   0.00         3    0    0  -0.039   -5.652360   -1.669384   10.513113
   57  H       1    0.97   0.00         0    0    0   0.026   -6.458895   -2.175642    8.677811
   58  H       1    0.97   0.00         0    0    0   0.026   -4.533642   -3.274706   11.164691
   59  C       4    2.78   0.00         3    0    0  -0.075  -13.239232    9.150054   -3.410200
   60  H       1    0.97   0.00         0    0    0   0.031  -11.650728   10.461335   -3.257510
   61  H       1    0.97   0.00         0    0    0   0.031  -14.515742    9.607179   -4.956374
   62  Ru      5    3.46   0.00         0    2    0   0.339  -13.596957    6.528059   -1.054656
   63  Cl      1    0.99   0.00         0    0    0  -0.255  -10.898617    3.313068   -2.285624
   64  Cl      1    0.96   0.00         0    0    0  -0.255  -15.942485    8.624521    1.929032
   65  P       4    3.73   0.02         3    0    0  -0.003  -16.951788    4.315757   -2.808889
   66  C       4    3.49   0.00         3    0    0  -0.029  -17.463526    1.433357   -0.811259
   67  H       1    0.97   0.01         0    0    0   0.025  -19.505564    1.056357   -0.832046
   68  C       4    3.51   0.00         3    0    0  -0.039  -16.105569   -0.984925   -1.630645
   69  H       1    0.97   0.00         0    0    0   0.026  -16.665495   -1.537481   -3.536433
   70  H       1    0.97   0.00         0    0    0   0.026  -14.059751   -0.708647   -1.604566
   71  C       4    3.49   0.00         3    0    0  -0.041  -16.769430   -3.137701    0.179902
   72  H       1    0.97   0.00         0    0    0   0.027  -18.804476   -3.495426    0.102801
   73  H       1    0.97   0.00         0    0    0   0.027  -15.800756   -4.855273   -0.425755
   74  C       4    3.49   0.00         3    0    0  -0.037  -16.003146   -2.485746    2.878809
   75  H       1    0.97   0.00         0    0    0   0.026  -13.954494   -2.250664    2.963657
   76  H       1    0.97   0.00         0    0    0   0.026  -16.516017   -4.026628    4.151728
   77  C       4    3.49   0.00         3    0    0  -0.041  -17.292884   -0.047243    3.711044
   78  H       1    0.97   0.00         0    0    0   0.027  -16.699132    0.448432    5.624392
   79  H       1    0.97   0.00         0    0    0   0.027  -19.342670   -0.315584    3.742414
   80  C       4    3.55   0.00         3    0    0  -0.039  -16.656046    2.095706    1.893695
   81  H       1    0.97   0.01         0    0    0   0.026  -14.588497    2.390315    1.926387
   82  H       1    0.97   0.00         0    0    0   0.026  -17.568973    3.843325    2.515414
   83  C       4    3.49   0.00         3    0    0  -0.029  -16.314950    2.995405   -6.011786
   84  H       1    0.98   0.01         0    0    0   0.025  -14.948679    1.483624   -5.621935
   85  C       4    3.52   0.00         3    0    0  -0.039  -14.977969    4.836565   -7.790018
   86  H       1    0.97   0.00         0    0    0   0.026  -16.251456    6.358928   -8.347676
   87  H       1    0.97   0.00         0    0    0   0.026  -13.353183    5.671068   -6.821911
   88  C       4    3.49   0.00         3    0    0  -0.041  -14.104916    3.426073  -10.152176
   89  H       1    0.97   0.00         0    0    0   0.027  -13.160242    4.735654  -11.435300
   90  H       1    0.97   0.00         0    0    0   0.027  -12.740156    1.974386   -9.614549
   91  C       4    3.49   0.00         3    0    0  -0.037  -16.346131    2.192271  -11.483677
   92  H       1    0.97   0.00         0    0    0   0.026  -17.643239    3.658699  -12.138467
   93  H       1    0.97   0.00         0    0    0   0.026  -15.692475    1.144985  -13.136620
   94  C       4    3.49   0.00         3    0    0  -0.041  -17.742261    0.418574   -9.689193
   95  H       1    0.97   0.00         0    0    0   0.027  -16.487482   -1.124198   -9.134747
   96  H       1    0.97   0.00         0    0    0   0.027  -19.374795   -0.407236  -10.644449
   97  C       4    3.51   0.00         3    0    0  -0.039  -18.609456    1.850609   -7.336673
   98  H       1    0.97   0.00         0    0    0   0.026  -19.899572    3.351996   -7.918330
   99  H       1    0.97   0.00         0    0    0   0.026  -19.628018    0.574666   -6.072257
  100  C       4    3.49   0.00         3    0    0  -0.029  -20.165079    5.734374   -2.972539
  101  H       1    0.97   0.01         0    0    0   0.025  -21.326315    4.496036   -4.162878
  102  C       4    3.52   0.00         3    0    0  -0.039  -21.454817    6.016888   -0.401378
  103  H       1    0.97   0.00         0    0    0   0.026  -21.707095    4.181964    0.505880
  104  H       1    0.97   0.00         0    0    0   0.026  -20.285265    7.198156    0.818062
  105  C       4    3.49   0.00         3    0    0  -0.041  -24.039962    7.260895   -0.718474
  106  H       1    0.97   0.00         0    0    0   0.027  -24.944574    7.435883    1.127411
  107  H       1    0.97   0.00         0    0    0   0.027  -25.244095    6.070556   -1.903710
  108  C       4    3.49   0.00         3    0    0  -0.037  -23.767274    9.859268   -1.930166
  109  H       1    0.97   0.00         0    0    0   0.026  -22.624557   11.061701   -0.705057
  110  H       1    0.97   0.00         0    0    0   0.026  -25.620340   10.740069   -2.148619
  111  C       4    3.49   0.00         3    0    0  -0.041  -22.476591    9.614738   -4.492824
  112  H       1    0.97   0.00         0    0    0   0.027  -23.664662    8.492807   -5.757618
  113  H       1    0.97   0.00         0    0    0   0.027  -22.230171   11.477819   -5.343579
  114  C       4    3.56   0.00         3    0    0  -0.039  -19.908643    8.337661   -4.199916
  115  H       1    0.97   0.00         0    0    0   0.026  -18.683722    9.490772   -2.994460
  116  H       1    0.97   0.00         0    0    0   0.026  -19.007999    8.162483   -6.047502
 
          #atoms :   116
          #bonds :   122
          #angl  :   260
          #tors  :   411
          #nmol  :   1
          #optfrag :   1
           ------------------------------------------------- 
          |                   G F N - F F                   |
          |          A general generic force-field          |
          |                  Version 1.0.3                  | 
           ------------------------------------------------- 
          Number of HB bonds (bound hydrogen)     0
          Number of HB bonds (unbound hydrogen)   0
          Number of XB bonds                      0

 E+G (total)                   0 d,  0 h,  0 min,  0.011 sec
 distance/D3 list               ...        0 min,  0.000 sec (  0.161%)
 non bonded repulsion           ...        0 min,  0.000 sec (  3.160%)
 dCN                            ...        0 min,  0.000 sec (  1.412%)
 EEQ energy and q               ...        0 min,  0.002 sec ( 16.371%)
 D3                             ...        0 min,  0.000 sec (  4.022%)
 EEQ gradient                   ...        0 min,  0.000 sec (  2.760%)
 bonds                          ...        0 min,  0.001 sec (  5.656%)
 bend and torsion               ...        0 min,  0.001 sec (  7.386%)
 bonded ATM                     ...        0 min,  0.007 sec ( 58.695%)
 HB/XB (incl list setup)        ...        0 min,  0.000 sec (  0.150%)

         :::::::::::::::::::::::::::::::::::::::::::::::::::::
         ::                     SUMMARY                     ::
         :::::::::::::::::::::::::::::::::::::::::::::::::::::
         :: total energy             -16.782854715326 Eh    ::
         :: gradient norm              0.095694488037 Eh/a0 ::
         ::.................................................::
         :: bond energy              -17.697218930409 Eh    ::
         :: angle energy               0.065481504552 Eh    ::
         :: torsion energy             0.066448832930 Eh    ::
         :: repulsion energy           1.087051029103 Eh    ::
         :: electrostat energy        -0.144089564285 Eh    ::
         :: dispersion energy         -0.141463010671 Eh    ::
         :: HB energy                  0.000000000000 Eh    ::
         :: XB energy                  0.000000000000 Eh    ::
         :: bonded atm energy         -0.019064608445 Eh    ::
         :: external energy            0.000000000000 Eh    ::
         :: add. restraining           0.000000031900 Eh    ::
         :: total charge               0.000000000000 e     ::
         :::::::::::::::::::::::::::::::::::::::::::::::::::::

      ----------------------------------------------------------- 
     |                   =====================                   |
     |                        A N C O P T                        |
     |                   =====================                   |
     |               Approximate Normal Coordinate               |
     |                Rational Function Optimizer                |
      ----------------------------------------------------------- 
      ----------------------------------------------------------- 
     |                   =====================                   |
     |                        A N C O P T                        |
     |                   =====================                   |
     |               Approximate Normal Coordinate               |
     |                Rational Function Optimizer                |
      ----------------------------------------------------------- 

          ...................................................
          :                      SETUP                      :
          :.................................................:
          :   optimization level            normal          :
          :   max. optcycles                   348          :
          :   ANC micro-cycles                  20          :
          :   degrees of freedom               342          :
          :.................................................:
          :   RF solver                   davidson          :
          :   write xtbopt.log                true          :
          :   linear?                        false          :
          :   energy convergence         0.5000000E-05 Eh   :
          :   grad. convergence          0.1000000E-02 Eh/α :
          :   maxmium RF displ.          1.0000000          :
          :   Hlow (freq-cutoff)         0.1000000E-01      :
          :   Hmax (freq-cutoff)         5.0000000          :
          :   S6 in model hess.         20.0000000          :
          ...................................................

generating ANC from exact Hessian ...
Using GFN-FF Lindh-Hessian
 Shifting diagonal of input Hessian by   9.979357762082808E-003
 Lowest  eigenvalues of input Hessian
    0.000000    0.000000    0.000000    0.000000    0.000000    0.010000
    0.000000    0.010007    0.010010    0.010028    0.010035    0.010170
    0.010225    0.010280    0.010288    0.010293    0.010324    0.010353
 Highest eigenvalues
    7.442314    8.173705    9.190904   10.005606   11.163514   14.653340
 

........................................................................
.............................. CYCLE    1 ..............................
........................................................................
     iter. time                 ...        0 min,  0.006 sec
 * total energy  :   -16.7828547 Eh     change        0.0000000E+00 Eh
   gradient norm :     0.0956945 Eh/α   predicted     0.0000000E+00 (    NaN%)
   displ. norm   :     0.3431112 α      lambda       -0.1497960E-01
   maximum displ.:     0.1056965 α      in ANC's #108, #41, #96, ...

........................................................................
.............................. CYCLE    2 ..............................
........................................................................
     iter. time                 ...        0 min,  0.005 sec
 * total energy  :   -16.7936912 Eh     change       -0.1083649E-01 Eh
   gradient norm :     0.0635939 Eh/α   predicted    -0.8371553E-02 ( -22.75%)
   displ. norm   :     0.4278972 α      lambda       -0.9438134E-02
   maximum displ.:     0.1270471 α      in ANC's #30, #108, #41, ...

........................................................................
.............................. CYCLE    3 ..............................
........................................................................
     iter. time                 ...        0 min,  0.005 sec
 * total energy  :   -16.7982580 Eh     change       -0.4566756E-02 Eh
   gradient norm :     0.1364980 Eh/α   predicted    -0.5593137E-02 (  22.48%)
   displ. norm   :     0.2949748 α      lambda       -0.4189837E-02
   maximum displ.:     0.1155826 α      in ANC's #30, #23, #41, ...

........................................................................
.............................. CYCLE    4 ..............................
........................................................................
     iter. time                 ...        0 min,  0.005 sec
 * total energy  :   -16.7994501 Eh     change       -0.1192119E-02 Eh
   gradient norm :     0.1359346 Eh/α   predicted    -0.2277901E-02 (  91.08%)
   displ. norm   :     0.1761738 α      lambda       -0.2161811E-02
   maximum displ.:     0.0665937 α      in ANC's #30, #23, #24, ...

........................................................................
.............................. CYCLE    5 ..............................
........................................................................
     iter. time                 ...        0 min,  0.005 sec
 * total energy  :   -16.8007334 Eh     change       -0.1283338E-02 Eh
   gradient norm :     0.0460625 Eh/α   predicted    -0.1114543E-02 ( -13.15%)
   displ. norm   :     0.2581389 α      lambda       -0.1055949E-02
   maximum displ.:     0.0884262 α      in ANC's #23, #30, #24, ...

........................................................................
.............................. CYCLE    6 ..............................
........................................................................
     iter. time                 ...        0 min,  0.007 sec
 * total energy  :   -16.8014071 Eh     change       -0.6736559E-03 Eh
   gradient norm :     0.0334193 Eh/α   predicted    -0.5631899E-03 ( -16.40%)
   displ. norm   :     0.3471416 α      lambda       -0.6662182E-03
   maximum displ.:     0.1181270 α      in ANC's #23, #13, #30, ...

........................................................................
.............................. CYCLE    7 ..............................
........................................................................
     iter. time                 ...        0 min,  0.006 sec
 * total energy  :   -16.8018640 Eh     change       -0.4569697E-03 Eh
   gradient norm :     0.0267477 Eh/α   predicted    -0.3732701E-03 ( -18.32%)
   displ. norm   :     0.3498097 α      lambda       -0.4458651E-03
   maximum displ.:     0.1210075 α      in ANC's #13, #23, #7, ...

........................................................................
.............................. CYCLE    8 ..............................
........................................................................
     iter. time                 ...        0 min,  0.006 sec
 * total energy  :   -16.8021758 Eh     change       -0.3118040E-03 Eh
   gradient norm :     0.0119895 Eh/α   predicted    -0.2502165E-03 ( -19.75%)
   displ. norm   :     0.3472061 α      lambda       -0.3565495E-03
   maximum displ.:     0.1323528 α      in ANC's #13, #7, #12, ...

........................................................................
.............................. CYCLE    9 ..............................
........................................................................
     iter. time                 ...        0 min,  0.006 sec
 * total energy  :   -16.8024374 Eh     change       -0.2615442E-03 Eh
   gradient norm :     0.0151922 Eh/α   predicted    -0.1998027E-03 ( -23.61%)
   displ. norm   :     0.3615772 α      lambda       -0.3217954E-03
   maximum displ.:     0.1414882 α      in ANC's #13, #12, #7, ...

........................................................................
.............................. CYCLE   10 ..............................
........................................................................
     iter. time                 ...        0 min,  0.006 sec
 * total energy  :   -16.8026721 Eh     change       -0.2347520E-03 Eh
   gradient norm :     0.0140581 Eh/α   predicted    -0.1819440E-03 ( -22.50%)
   displ. norm   :     0.3361613 α      lambda       -0.2424942E-03
   maximum displ.:     0.1289257 α      in ANC's #12, #13, #7, ...

........................................................................
.............................. CYCLE   11 ..............................
........................................................................
     iter. time                 ...        0 min,  0.005 sec
 * total energy  :   -16.8028457 Eh     change       -0.1735514E-03 Eh
   gradient norm :     0.0100061 Eh/α   predicted    -0.1349737E-03 ( -22.23%)
   displ. norm   :     0.3121580 α      lambda       -0.1864045E-03
   maximum displ.:     0.1277736 α      in ANC's #12, #13, #7, ...

........................................................................
.............................. CYCLE   12 ..............................
........................................................................
     iter. time                 ...        0 min,  0.006 sec
 * total energy  :   -16.8029755 Eh     change       -0.1298406E-03 Eh
   gradient norm :     0.0118084 Eh/α   predicted    -0.1022859E-03 ( -21.22%)
   displ. norm   :     0.3202794 α      lambda       -0.1775462E-03
   maximum displ.:     0.1389306 α      in ANC's #12, #9, #13, ...

........................................................................
.............................. CYCLE   13 ..............................
........................................................................
     iter. time                 ...        0 min,  0.006 sec
 * total energy  :   -16.8030939 Eh     change       -0.1183634E-03 Eh
   gradient norm :     0.0130916 Eh/α   predicted    -0.9788521E-04 ( -17.30%)
   displ. norm   :     0.2840619 α      lambda       -0.1445057E-03
   maximum displ.:     0.1313393 α      in ANC's #12, #9, #7, ...

........................................................................
.............................. CYCLE   14 ..............................
........................................................................
     iter. time                 ...        0 min,  0.005 sec
 * total energy  :   -16.8032011 Eh     change       -0.1072047E-03 Eh
   gradient norm :     0.0075646 Eh/α   predicted    -0.7808820E-04 ( -27.16%)
   displ. norm   :     0.2824195 α      lambda       -0.1252844E-03
   maximum displ.:     0.1359843 α      in ANC's #12, #9, #11, ...

........................................................................
.............................. CYCLE   15 ..............................
........................................................................
     iter. time                 ...        0 min,  0.006 sec
 * total energy  :   -16.8032926 Eh     change       -0.9147882E-04 Eh
   gradient norm :     0.0040666 Eh/α   predicted    -0.6764317E-04 ( -26.06%)
   displ. norm   :     0.2469432 α      lambda       -0.8452456E-04
   maximum displ.:     0.1207046 α      in ANC's #12, #9, #11, ...

........................................................................
.............................. CYCLE   16 ..............................
........................................................................
     iter. time                 ...        0 min,  0.005 sec
 * total energy  :   -16.8033548 Eh     change       -0.6219554E-04 Eh
   gradient norm :     0.0043709 Eh/α   predicted    -0.4484547E-04 ( -27.90%)
   displ. norm   :     0.2234924 α      lambda       -0.6716034E-04
   maximum displ.:     0.1082993 α      in ANC's #12, #11, #9, ...

........................................................................
.............................. CYCLE   17 ..............................
........................................................................
     iter. time                 ...        0 min,  0.006 sec
 * total energy  :   -16.8034052 Eh     change       -0.5044801E-04 Eh
   gradient norm :     0.0047559 Eh/α   predicted    -0.3525809E-04 ( -30.11%)
   displ. norm   :     0.2227198 α      lambda       -0.6211809E-04
   maximum displ.:     0.1055012 α      in ANC's #12, #17, #2, ...

........................................................................
.............................. CYCLE   18 ..............................
........................................................................
     iter. time                 ...        0 min,  0.006 sec
 * total energy  :   -16.8034500 Eh     change       -0.4473826E-04 Eh
   gradient norm :     0.0036550 Eh/α   predicted    -0.3260054E-04 ( -27.13%)
   displ. norm   :     0.1761065 α      lambda       -0.4249478E-04
   maximum displ.:     0.0809428 α      in ANC's #12, #17, #2, ...

........................................................................
.............................. CYCLE   19 ..............................
........................................................................
     iter. time                 ...        0 min,  0.005 sec
 * total energy  :   -16.8034803 Eh     change       -0.3030195E-04 Eh
   gradient norm :     0.0022691 Eh/α   predicted    -0.2190960E-04 ( -27.70%)
   displ. norm   :     0.1354729 α      lambda       -0.2853848E-04
   maximum displ.:     0.0585941 α      in ANC's #12, #17, #2, ...

........................................................................
.............................. CYCLE   20 ..............................
........................................................................
     iter. time                 ...        0 min,  0.005 sec
 * total energy  :   -16.8035011 Eh     change       -0.2082560E-04 Eh
   gradient norm :     0.0020437 Eh/α   predicted    -0.1453223E-04 ( -30.22%)
   displ. norm   :     0.1243132 α      lambda       -0.2313538E-04
   maximum displ.:     0.0496007 α      in ANC's #12, #17, #2, ...
 * RMSD in coord.:     0.3898386 α      energy gain  -0.2064637E-01 Eh

generating ANC from exact Hessian ...
Using GFN-FF Lindh-Hessian
 Shifting diagonal of input Hessian by   9.979719582300367E-003
 Lowest  eigenvalues of input Hessian
    0.000000    0.000000    0.000000    0.000000    0.000000    0.010000
    0.000000    0.010013    0.010025    0.010037    0.010041    0.010258
    0.010270    0.010298    0.010306    0.010330    0.010378    0.010412
 Highest eigenvalues
    7.505573    8.207559    9.298556   10.232301   11.438780   14.840453
 

........................................................................
.............................. CYCLE   21 ..............................
........................................................................
     iter. time                 ...        0 min,  0.007 sec
 * total energy  :   -16.8035183 Eh     change       -0.1720550E-04 Eh
   gradient norm :     0.0023085 Eh/α   predicted     0.0000000E+00 (-100.00%)
   displ. norm   :     0.0197194 α      lambda        0.2951621E-05
   maximum displ.:     0.0083437 α      in ANC's #16, #2, #18, ...

........................................................................
.............................. CYCLE   22 ..............................
........................................................................
     iter. time                 ...        0 min,  0.006 sec
 * total energy  :   -16.8035257 Eh     change       -0.7360088E-05 Eh
   gradient norm :     0.0029498 Eh/α   predicted    -0.4544239E-05 ( -38.26%)
   displ. norm   :     0.0919359 α      lambda       -0.3031434E-04
   maximum displ.:     0.0387637 α      in ANC's #16, #2, #7, ...

........................................................................
.............................. CYCLE   23 ..............................
........................................................................
     iter. time                 ...        0 min,  0.006 sec
 * total energy  :   -16.8035362 Eh     change       -0.1050359E-04 Eh
   gradient norm :     0.0082345 Eh/α   predicted    -0.1534385E-04 (  46.08%)
   displ. norm   :     0.0246129 α      lambda       -0.1213227E-04
   maximum displ.:     0.0108589 α      in ANC's #2, #16, #7, ...

........................................................................
.............................. CYCLE   24 ..............................
........................................................................
     iter. time                 ...        0 min,  0.006 sec
 * total energy  :   -16.8035440 Eh     change       -0.7792043E-05 Eh
   gradient norm :     0.0029378 Eh/α   predicted    -0.6128420E-05 ( -21.35%)
   displ. norm   :     0.0381663 α      lambda       -0.8484694E-05
   maximum displ.:     0.0176285 α      in ANC's #2, #16, #7, ...

........................................................................
.............................. CYCLE   25 ..............................
........................................................................
     iter. time                 ...        0 min,  0.006 sec
 * total energy  :   -16.8035505 Eh     change       -0.6574437E-05 Eh
   gradient norm :     0.0050307 Eh/α   predicted    -0.4250192E-05 ( -35.35%)
   displ. norm   :     0.0968952 α      lambda       -0.1415998E-04
   maximum displ.:     0.0441265 α      in ANC's #2, #16, #7, ...

........................................................................
.............................. CYCLE   26 ..............................
........................................................................
     iter. time                 ...        0 min,  0.006 sec
 * total energy  :   -16.8035604 Eh     change       -0.9878640E-05 Eh
   gradient norm :     0.0052406 Eh/α   predicted    -0.7249991E-05 ( -26.61%)
   displ. norm   :     0.1181870 α      lambda       -0.1261169E-04
   maximum displ.:     0.0549828 α      in ANC's #2, #16, #7, ...

........................................................................
.............................. CYCLE   27 ..............................
........................................................................
     iter. time                 ...        0 min,  0.006 sec
 * total energy  :   -16.8035690 Eh     change       -0.8566810E-05 Eh
   gradient norm :     0.0034583 Eh/α   predicted    -0.6408241E-05 ( -25.20%)
   displ. norm   :     0.1078992 α      lambda       -0.1038785E-04
   maximum displ.:     0.0525553 α      in ANC's #2, #16, #7, ...

........................................................................
.............................. CYCLE   28 ..............................
........................................................................
     iter. time                 ...        0 min,  0.006 sec
 * total energy  :   -16.8035769 Eh     change       -0.7956671E-05 Eh
   gradient norm :     0.0020361 Eh/α   predicted    -0.5260584E-05 ( -33.88%)
   displ. norm   :     0.1122386 α      lambda       -0.1143911E-04
   maximum displ.:     0.0580932 α      in ANC's #2, #7, #11, ...

........................................................................
.............................. CYCLE   29 ..............................
........................................................................
     iter. time                 ...        0 min,  0.006 sec
 * total energy  :   -16.8035857 Eh     change       -0.8724843E-05 Eh
   gradient norm :     0.0032169 Eh/α   predicted    -0.5800080E-05 ( -33.52%)
   displ. norm   :     0.1120926 α      lambda       -0.1107704E-04
   maximum displ.:     0.0605412 α      in ANC's #2, #7, #5, ...

........................................................................
.............................. CYCLE   30 ..............................
........................................................................
     iter. time                 ...        0 min,  0.006 sec
 * total energy  :   -16.8035938 Eh     change       -0.8134194E-05 Eh
   gradient norm :     0.0032553 Eh/α   predicted    -0.5610405E-05 ( -31.03%)
   displ. norm   :     0.1032942 α      lambda       -0.9496666E-05
   maximum displ.:     0.0569345 α      in ANC's #2, #7, #5, ...

........................................................................
.............................. CYCLE   31 ..............................
........................................................................
     iter. time                 ...        0 min,  0.006 sec
 * total energy  :   -16.8036012 Eh     change       -0.7417909E-05 Eh
   gradient norm :     0.0018263 Eh/α   predicted    -0.4808764E-05 ( -35.17%)
   displ. norm   :     0.1696179 α      lambda       -0.1052161E-04
   maximum displ.:     0.0942375 α      in ANC's #2, #7, #5, ...

........................................................................
.............................. CYCLE   32 ..............................
........................................................................
     iter. time                 ...        0 min,  0.006 sec
 * total energy  :   -16.8036124 Eh     change       -0.1119162E-04 Eh
   gradient norm :     0.0027435 Eh/α   predicted    -0.5330812E-05 ( -52.37%)
   displ. norm   :     0.0990658 α      lambda       -0.9311693E-05
   maximum displ.:     0.0557735 α      in ANC's #2, #7, #5, ...

........................................................................
.............................. CYCLE   33 ..............................
........................................................................
     iter. time                 ...        0 min,  0.006 sec
 * total energy  :   -16.8036198 Eh     change       -0.7400699E-05 Eh
   gradient norm :     0.0027571 Eh/α   predicted    -0.4705437E-05 ( -36.42%)
   displ. norm   :     0.1417180 α      lambda       -0.1291072E-04
   maximum displ.:     0.0794526 α      in ANC's #2, #7, #5, ...

........................................................................
.............................. CYCLE   34 ..............................
........................................................................
     iter. time                 ...        0 min,  0.006 sec
 * total energy  :   -16.8036297 Eh     change       -0.9899096E-05 Eh
   gradient norm :     0.0016668 Eh/α   predicted    -0.6589853E-05 ( -33.43%)
   displ. norm   :     0.2333845 α      lambda       -0.1089955E-04
   maximum displ.:     0.1309866 α      in ANC's #2, #7, #5, ...

........................................................................
.............................. CYCLE   35 ..............................
........................................................................
     iter. time                 ...        0 min,  0.005 sec
 * total energy  :   -16.8036414 Eh     change       -0.1169504E-04 Eh
   gradient norm :     0.0015111 Eh/α   predicted    -0.5585605E-05 ( -52.24%)
   displ. norm   :     0.1891624 α      lambda       -0.9535200E-05
   maximum displ.:     0.1061533 α      in ANC's #2, #5, #7, ...

........................................................................
.............................. CYCLE   36 ..............................
........................................................................
     iter. time                 ...        0 min,  0.006 sec
 * total energy  :   -16.8036537 Eh     change       -0.1227015E-04 Eh
   gradient norm :     0.0016843 Eh/α   predicted    -0.4846142E-05 ( -60.50%)
   displ. norm   :     0.3207059 α      lambda       -0.1805871E-04
   maximum displ.:     0.1797089 α      in ANC's #2, #5, #7, ...

........................................................................
.............................. CYCLE   37 ..............................
........................................................................
     iter. time                 ...        0 min,  0.006 sec
 * total energy  :   -16.8036733 Eh     change       -0.1962724E-04 Eh
   gradient norm :     0.0030345 Eh/α   predicted    -0.9442759E-05 ( -51.89%)
   displ. norm   :     0.2131074 α      lambda       -0.1354522E-04
   maximum displ.:     0.1205540 α      in ANC's #2, #5, #8, ...

........................................................................
.............................. CYCLE   38 ..............................
........................................................................
     iter. time                 ...        0 min,  0.006 sec
 * total energy  :   -16.8036837 Eh     change       -0.1037695E-04 Eh
   gradient norm :     0.0014856 Eh/α   predicted    -0.7083791E-05 ( -31.74%)
   displ. norm   :     0.3157636 α      lambda       -0.1047565E-04
   maximum displ.:     0.1805319 α      in ANC's #2, #8, #5, ...

........................................................................
.............................. CYCLE   39 ..............................
........................................................................
     iter. time                 ...        0 min,  0.006 sec
 * total energy  :   -16.8036948 Eh     change       -0.1110712E-04 Eh
   gradient norm :     0.0020971 Eh/α   predicted    -0.5474311E-05 ( -50.71%)
   displ. norm   :     0.1157896 α      lambda       -0.6148654E-05
   maximum displ.:     0.0680043 α      in ANC's #2, #8, #3, ...

........................................................................
.............................. CYCLE   40 ..............................
........................................................................
     iter. time                 ...        0 min,  0.006 sec
 * total energy  :   -16.8037000 Eh     change       -0.5244929E-05 Eh
   gradient norm :     0.0009736 Eh/α   predicted    -0.3118149E-05 ( -40.55%)
   displ. norm   :     0.1974540 α      lambda       -0.7801436E-05
   maximum displ.:     0.1185631 α      in ANC's #2, #3, #8, ...

........................................................................
.............................. CYCLE   41 ..............................
........................................................................
     iter. time                 ...        0 min,  0.006 sec
 * total energy  :   -16.8037078 Eh     change       -0.7810410E-05 Eh
   gradient norm :     0.0011494 Eh/α   predicted    -0.3969384E-05 ( -49.18%)
   displ. norm   :     0.1165576 α      lambda       -0.3058434E-05
   maximum displ.:     0.0717057 α      in ANC's #2, #3, #8, ...

........................................................................
.............................. CYCLE   42 ..............................
........................................................................
     iter. time                 ...        0 min,  0.006 sec
 * total energy  :   -16.8037116 Eh     change       -0.3789821E-05 Eh
   gradient norm :     0.0010073 Eh/α   predicted    -0.1541034E-05 ( -59.34%)
   displ. norm   :     0.0804504 α      lambda       -0.3361047E-05
   maximum displ.:     0.0501194 α      in ANC's #2, #3, #8, ...
 * RMSD in coord.:     0.2568249 α      energy gain  -0.2105278E-03 Eh

generating ANC from exact Hessian ...
Using GFN-FF Lindh-Hessian
 Shifting diagonal of input Hessian by   9.979695838895776E-003
 Lowest  eigenvalues of input Hessian
    0.000000    0.000000    0.000000    0.000000    0.000000    0.010000
    0.000000    0.010011    0.010025    0.010036    0.010040    0.010262
    0.010274    0.010303    0.010309    0.010331    0.010366    0.010414
 Highest eigenvalues
    7.500485    8.210555    9.306913   10.208088   11.439963   14.834388
 

........................................................................
.............................. CYCLE   43 ..............................
........................................................................
     iter. time                 ...        0 min,  0.006 sec
 * total energy  :   -16.8037162 Eh     change       -0.4535061E-05 Eh
   gradient norm :     0.0004335 Eh/α   predicted     0.0000000E+00 (-100.00%)
   displ. norm   :     0.0006503 α      lambda        0.0000000E+00
   maximum displ.:     0.0002439 α      in ANC's #335, #338, #205, ...

   *** GEOMETRY OPTIMIZATION CONVERGED AFTER 43 ITERATIONS ***

------------------------------------------------------------------------
 total energy gain   :        -0.0208614 Eh      -13.0907 kcal/mol
 total RMSD          :         0.5186981 a0        0.2745 Å
 total power (kW/mol):        -1.2737604 (step) -131.0995 (real)
------------------------------------------------------------------------

 ANCopt (total)                0 d,  0 h,  0 min,  0.418 sec
 optimizer setup                ...        0 min,  0.001 sec (  0.123%)
 model hessian                  ...        0 min,  0.017 sec (  4.158%)
 ANC generation                 ...        0 min,  0.129 sec ( 30.828%)
 coordinate transformation      ...        0 min,  0.001 sec (  0.315%)
 single point calculation       ...        0 min,  0.246 sec ( 58.864%)
 optimization log               ...        0 min,  0.007 sec (  1.617%)
 hessian update                 ...        0 min,  0.012 sec (  2.879%)
 rational function              ...        0 min,  0.004 sec (  0.864%)

================
 final structure:
================
 xtb: 6.7.1 (edcfbbe)
          02052616533D

116122  0     0  0            999 V2000
    0.1431    0.1231    0.0960 H   0  0  0  0  0  0  0  0  0  0  0  0
    0.0674    0.1014    1.1619 C   0  0  0  0  0  0  0  0  0  0  0  0
    1.0425    0.1248    1.5993 H   0  0  0  0  0  0  0  0  0  0  0  0
   -1.5758   -0.0063    2.0701 Ru  0  0  0  0  0  0  0  0  0  0  0  0
   -1.9459   -2.2342    2.4000 Cl  0  0  0  0  0  0  0  0  0  0  0  0
   -2.3435    2.1800    1.8534 Cl  0  0  0  0  0  0  0  0  0  0  0  0
   -0.7405    0.1510    4.2418 P   0  0  0  0  0  4  0  0  0  0  0  0
    0.5141    1.5019    4.4803 C   0  0  0  0  0  0  0  0  0  0  0  0
    1.4827    1.0285    4.2775 H   0  0  0  0  0  0  0  0  0  0  0  0
    0.3299    2.6629    3.4904 C   0  0  0  0  0  0  0  0  0  0  0  0
    0.3254    2.2926    2.4575 H   0  0  0  0  0  0  0  0  0  0  0  0
   -0.6601    3.1077    3.6394 H   0  0  0  0  0  0  0  0  0  0  0  0
    1.4155    3.7411    3.6812 C   0  0  0  0  0  0  0  0  0  0  0  0
    2.3955    3.3169    3.4301 H   0  0  0  0  0  0  0  0  0  0  0  0
    1.2661    4.5712    2.9768 H   0  0  0  0  0  0  0  0  0  0  0  0
    1.4374    4.2535    5.1341 C   0  0  0  0  0  0  0  0  0  0  0  0
    0.4958    4.7742    5.3486 H   0  0  0  0  0  0  0  0  0  0  0  0
    2.2264    5.0064    5.2708 H   0  0  0  0  0  0  0  0  0  0  0  0
    1.6136    3.0896    6.1280 C   0  0  0  0  0  0  0  0  0  0  0  0
    1.6171    3.4553    7.1643 H   0  0  0  0  0  0  0  0  0  0  0  0
    2.5971    2.6278    5.9767 H   0  0  0  0  0  0  0  0  0  0  0  0
    0.5158    2.0266    5.9248 C   0  0  0  0  0  0  0  0  0  0  0  0
   -0.4608    2.4736    6.1422 H   0  0  0  0  0  0  0  0  0  0  0  0
    0.6212    1.2043    6.6432 H   0  0  0  0  0  0  0  0  0  0  0  0
    0.0160   -1.4856    4.6790 C   0  0  0  0  0  0  0  0  0  0  0  0
   -0.7943   -2.2158    4.5662 H   0  0  0  0  0  0  0  0  0  0  0  0
    0.4991   -1.5094    6.1348 C   0  0  0  0  0  0  0  0  0  0  0  0
    1.2974   -0.7673    6.2507 H   0  0  0  0  0  0  0  0  0  0  0  0
   -0.3041   -1.1975    6.8161 H   0  0  0  0  0  0  0  0  0  0  0  0
    1.0489   -2.8991    6.5117 C   0  0  0  0  0  0  0  0  0  0  0  0
    1.3819   -2.9182    7.5587 H   0  0  0  0  0  0  0  0  0  0  0  0
    0.2408   -3.6381    6.4465 H   0  0  0  0  0  0  0  0  0  0  0  0
    2.1912   -3.3062    5.5613 C   0  0  0  0  0  0  0  0  0  0  0  0
    3.0356   -2.6183    5.6939 H   0  0  0  0  0  0  0  0  0  0  0  0
    2.5800   -4.3007    5.8221 H   0  0  0  0  0  0  0  0  0  0  0  0
    1.7288   -3.2671    4.0918 C   0  0  0  0  0  0  0  0  0  0  0  0
    0.9608   -4.0338    3.9319 H   0  0  0  0  0  0  0  0  0  0  0  0
    2.5538   -3.5343    3.4168 H   0  0  0  0  0  0  0  0  0  0  0  0
    1.1503   -1.8846    3.7243 C   0  0  0  0  0  0  0  0  0  0  0  0
    1.9419   -1.1276    3.7674 H   0  0  0  0  0  0  0  0  0  0  0  0
    0.7900   -1.8824    2.6875 H   0  0  0  0  0  0  0  0  0  0  0  0
   -2.2343    0.4210    5.3143 C   0  0  0  0  0  0  0  0  0  0  0  0
   -1.8514    0.5257    6.3365 H   0  0  0  0  0  0  0  0  0  0  0  0
   -2.9909    1.7016    4.9285 C   0  0  0  0  0  0  0  0  0  0  0  0
   -2.3295    2.5758    4.9713 H   0  0  0  0  0  0  0  0  0  0  0  0
   -3.3018    1.6220    3.8811 H   0  0  0  0  0  0  0  0  0  0  0  0
   -4.2391    1.9110    5.8071 C   0  0  0  0  0  0  0  0  0  0  0  0
   -4.7672    2.8320    5.5235 H   0  0  0  0  0  0  0  0  0  0  0  0
   -3.9285    2.0585    6.8488 H   0  0  0  0  0  0  0  0  0  0  0  0
   -5.1745    0.6914    5.7201 C   0  0  0  0  0  0  0  0  0  0  0  0
   -5.5462    0.5922    4.6923 H   0  0  0  0  0  0  0  0  0  0  0  0
   -6.0684    0.8374    6.3427 H   0  0  0  0  0  0  0  0  0  0  0  0
   -4.4300   -0.5963    6.1189 C   0  0  0  0  0  0  0  0  0  0  0  0
   -4.1398   -0.5357    7.1751 H   0  0  0  0  0  0  0  0  0  0  0  0
   -5.0947   -1.4685    6.0470 H   0  0  0  0  0  0  0  0  0  0  0  0
   -3.1681   -0.7994    5.2550 C   0  0  0  0  0  0  0  0  0  0  0  0
   -3.4591   -0.9729    4.2119 H   0  0  0  0  0  0  0  0  0  0  0  0
   -2.6330   -1.7071    5.5639 H   0  0  0  0  0  0  0  0  0  0  0  0
   -7.0400    4.7213   -1.8496 C   0  0  0  0  0  0  0  0  0  0  0  0
   -6.2342    5.4224   -1.8080 H   0  0  0  0  0  0  0  0  0  0  0  0
   -7.6855    4.9629   -2.6657 H   0  0  0  0  0  0  0  0  0  0  0  0
   -7.2061    3.3556   -0.5679 Ru  0  0  0  0  0  0  0  0  0  0  0  0
   -5.7566    1.6599   -1.1870 Cl  0  0  0  0  0  0  0  0  0  0  0  0
   -8.4535    4.4811    0.9958 Cl  0  0  0  0  0  0  0  0  0  0  0  0
   -8.9697    2.1383   -1.4551 P   0  0  0  0  0  4  0  0  0  0  0  0
   -9.1753    0.7015   -0.2730 C   0  0  0  0  0  0  0  0  0  0  0  0
  -10.2216    0.3912   -0.3859 H   0  0  0  0  0  0  0  0  0  0  0  0
   -8.2794   -0.4973   -0.6308 C   0  0  0  0  0  0  0  0  0  0  0  0
   -8.4640   -0.8239   -1.6620 H   0  0  0  0  0  0  0  0  0  0  0  0
   -7.2317   -0.1765   -0.6038 H   0  0  0  0  0  0  0  0  0  0  0  0
   -8.4865   -1.6749    0.3446 C   0  0  0  0  0  0  0  0  0  0  0  0
   -9.5071   -2.0615    0.2336 H   0  0  0  0  0  0  0  0  0  0  0  0
   -7.8260   -2.5140    0.0852 H   0  0  0  0  0  0  0  0  0  0  0  0
   -8.2634   -1.2375    1.8043 C   0  0  0  0  0  0  0  0  0  0  0  0
   -7.2132   -0.9500    1.9404 H   0  0  0  0  0  0  0  0  0  0  0  0
   -8.4302   -2.0760    2.4951 H   0  0  0  0  0  0  0  0  0  0  0  0
   -9.1686   -0.0443    2.1609 C   0  0  0  0  0  0  0  0  0  0  0  0
   -9.0102    0.2735    3.2009 H   0  0  0  0  0  0  0  0  0  0  0  0
  -10.2194   -0.3540    2.1042 H   0  0  0  0  0  0  0  0  0  0  0  0
   -8.9288    1.1237    1.1863 C   0  0  0  0  0  0  0  0  0  0  0  0
   -7.8883    1.4551    1.2836 H   0  0  0  0  0  0  0  0  0  0  0  0
   -9.5353    1.9972    1.4548 H   0  0  0  0  0  0  0  0  0  0  0  0
   -8.4800    1.4498   -3.1109 C   0  0  0  0  0  0  0  0  0  0  0  0
   -7.6982    0.7153   -2.8817 H   0  0  0  0  0  0  0  0  0  0  0  0
   -7.8692    2.4653   -4.0869 C   0  0  0  0  0  0  0  0  0  0  0  0
   -8.6077    3.2412   -4.3121 H   0  0  0  0  0  0  0  0  0  0  0  0
   -7.0196    2.9778   -3.6190 H   0  0  0  0  0  0  0  0  0  0  0  0
   -7.4308    1.7777   -5.3967 C   0  0  0  0  0  0  0  0  0  0  0  0
   -7.0083    2.5115   -6.0973 H   0  0  0  0  0  0  0  0  0  0  0  0
   -6.6152    1.0765   -5.1816 H   0  0  0  0  0  0  0  0  0  0  0  0
   -8.6027    1.0149   -6.0455 C   0  0  0  0  0  0  0  0  0  0  0  0
   -9.3684    1.7322   -6.3664 H   0  0  0  0  0  0  0  0  0  0  0  0
   -8.2758    0.5059   -6.9631 H   0  0  0  0  0  0  0  0  0  0  0  0
   -9.2277    0.0109   -5.0571 C   0  0  0  0  0  0  0  0  0  0  0  0
   -8.4918   -0.7650   -4.8127 H   0  0  0  0  0  0  0  0  0  0  0  0
  -10.0732   -0.5195   -5.5168 H   0  0  0  0  0  0  0  0  0  0  0  0
   -9.6649    0.7241   -3.7622 C   0  0  0  0  0  0  0  0  0  0  0  0
  -10.4394    1.4617   -4.0050 H   0  0  0  0  0  0  0  0  0  0  0  0
  -10.1341    0.0281   -3.0534 H   0  0  0  0  0  0  0  0  0  0  0  0
  -10.5828    3.0589   -1.5685 C   0  0  0  0  0  0  0  0  0  0  0  0
  -11.2082    2.4687   -2.2487 H   0  0  0  0  0  0  0  0  0  0  0  0
  -11.2998    3.1443   -0.2120 C   0  0  0  0  0  0  0  0  0  0  0  0
  -11.4482    2.1426    0.2115 H   0  0  0  0  0  0  0  0  0  0  0  0
  -10.6528    3.6767    0.4940 H   0  0  0  0  0  0  0  0  0  0  0  0
  -12.6452    3.8881   -0.3297 C   0  0  0  0  0  0  0  0  0  0  0  0
  -13.1457    3.9454    0.6470 H   0  0  0  0  0  0  0  0  0  0  0  0
  -13.3224    3.3129   -0.9731 H   0  0  0  0  0  0  0  0  0  0  0  0
  -12.4451    5.2934   -0.9263 C   0  0  0  0  0  0  0  0  0  0  0  0
  -11.8439    5.8977   -0.2355 H   0  0  0  0  0  0  0  0  0  0  0  0
  -13.4053    5.8201   -1.0190 H   0  0  0  0  0  0  0  0  0  0  0  0
  -11.7291    5.2133   -2.2871 C   0  0  0  0  0  0  0  0  0  0  0  0
  -12.3709    4.6893   -3.0060 H   0  0  0  0  0  0  0  0  0  0  0  0
  -11.5747    6.2167   -2.7077 H   0  0  0  0  0  0  0  0  0  0  0  0
  -10.3889    4.4621   -2.1585 C   0  0  0  0  0  0  0  0  0  0  0  0
   -9.7193    5.0273   -1.4992 H   0  0  0  0  0  0  0  0  0  0  0  0
   -9.8801    4.4061   -3.1283 H   0  0  0  0  0  0  0  0  0  0  0  0
  1  2  1  0  0  0  0
  2  3  1  0  0  0  0
  4  2  1  0  0  0  0
  4  5  1  0  0  0  0
  4  6  1  0  0  0  0
  4  7  1  0  0  0  0
  8  7  1  0  0  0  0
  9  8  1  0  0  0  0
 10  8  1  0  0  0  0
 11 10  1  0  0  0  0
 12 10  1  0  0  0  0
 13 10  1  0  0  0  0
 14 13  1  0  0  0  0
 15 13  1  0  0  0  0
 16 13  1  0  0  0  0
 16 17  1  0  0  0  0
 18 16  1  0  0  0  0
 19 16  1  0  0  0  0
 20 19  1  0  0  0  0
 21 19  1  0  0  0  0
 22  8  1  0  0  0  0
 23 22  1  0  0  0  0
 24 22  1  0  0  0  0
 25  7  1  0  0  0  0
 26 25  1  0  0  0  0
 27 25  1  0  0  0  0
 28 27  1  0  0  0  0
 29 27  1  0  0  0  0
 30 27  1  0  0  0  0
 31 30  1  0  0  0  0
 32 30  1  0  0  0  0
 33 30  1  0  0  0  0
 33 34  1  0  0  0  0
 35 33  1  0  0  0  0
 33 36  1  0  0  0  0
 37 36  1  0  0  0  0
 38 36  1  0  0  0  0
 36 39  1  0  0  0  0
 40 39  1  0  0  0  0
 41 39  1  0  0  0  0
 42  7  1  0  0  0  0
 43 42  1  0  0  0  0
 44 42  1  0  0  0  0
 45 44  1  0  0  0  0
 46 44  1  0  0  0  0
 44 47  1  0  0  0  0
 48 47  1  0  0  0  0
 49 47  1  0  0  0  0
 47 50  1  0  0  0  0
 50 51  1  0  0  0  0
 52 50  1  0  0  0  0
 50 53  1  0  0  0  0
 54 53  1  0  0  0  0
 55 53  1  0  0  0  0
 53 56  1  0  0  0  0
 56 57  1  0  0  0  0
 58 56  1  0  0  0  0
 59  2  1  0  0  0  0
 59 60  1  0  0  0  0
 61 59  1  0  0  0  0
 59 62  1  0  0  0  0
 63 62  1  0  0  0  0
 62 64  1  0  0  0  0
 62 65  1  0  0  0  0
 66 65  1  0  0  0  0
 67 66  1  0  0  0  0
 68 66  1  0  0  0  0
 69 68  1  0  0  0  0
 70 68  1  0  0  0  0
 71 68  1  0  0  0  0
 72 71  1  0  0  0  0
 73 71  1  0  0  0  0
 74 71  1  0  0  0  0
 74 75  1  0  0  0  0
 76 74  1  0  0  0  0
 77 74  1  0  0  0  0
 78 77  1  0  0  0  0
 79 77  1  0  0  0  0
 80 66  1  0  0  0  0
 81 80  1  0  0  0  0
 82 80  1  0  0  0  0
 83 65  1  0  0  0  0
 84 83  1  0  0  0  0
 85 83  1  0  0  0  0
 86 85  1  0  0  0  0
 87 85  1  0  0  0  0
 88 85  1  0  0  0  0
 89 88  1  0  0  0  0
 90 88  1  0  0  0  0
 91 88  1  0  0  0  0
 91 92  1  0  0  0  0
 93 91  1  0  0  0  0
 91 94  1  0  0  0  0
 95 94  1  0  0  0  0
 96 94  1  0  0  0  0
 94 97  1  0  0  0  0
 98 97  1  0  0  0  0
 99 97  1  0  0  0  0
100 65  1  0  0  0  0
101100  1  0  0  0  0
102100  1  0  0  0  0
103102  1  0  0  0  0
104102  1  0  0  0  0
102105  1  0  0  0  0
106105  1  0  0  0  0
107105  1  0  0  0  0
105108  1  0  0  0  0
108109  1  0  0  0  0
110108  1  0  0  0  0
108111  1  0  0  0  0
112111  1  0  0  0  0
113111  1  0  0  0  0
111114  1  0  0  0  0
114115  1  0  0  0  0
116114  1  0  0  0  0
 80 77  1  0  0  0  0
 97 83  1  0  0  0  0
114100  1  0  0  0  0
 22 19  1  0  0  0  0
 39 25  1  0  0  0  0
 56 42  1  0  0  0  0
  4 62  1  0  0  0  0
M  END
$$$$
 
 Bond Distances (Angstroems)
 ---------------------------
H1-C2=1.0689         C2-H1=1.0689         C2-H3=1.0690         C2-Ru4=1.8806        H3-C2=1.0690         Ru4-C2=1.8806        
Ru4-Cl5=2.2824       Ru4-Cl6=2.3273       Ru4-P7=2.3322        Cl5-Ru4=2.2824       Cl6-Ru4=2.3273       P7-Ru4=2.3322        
P7-C8=1.8590         P7-C25=1.8552        P7-C42=1.8586        C8-P7=1.8590         C8-H9=1.0970         C8-C10=1.5368        
C8-C22=1.5369        H9-C8=1.0970         C10-C8=1.5368        C10-H11=1.0973       C10-H12=1.0955       C10-C13=1.5419       
H11-C10=1.0973       H12-C10=1.0955       C13-C10=1.5419       C13-H14=1.0970       C13-H15=1.0989       C13-C16=1.5407       
H14-C13=1.0970       H15-C13=1.0989       C16-C13=1.5407       C16-H17=1.0972       C16-H18=1.0991       C16-C19=1.5407       
H17-C16=1.0972       H18-C16=1.0991       C19-C16=1.5407       C19-H20=1.0989       C19-H21=1.0970       C19-C22=1.5416       
H20-C19=1.0989       H21-C19=1.0970       C22-C8=1.5369        C22-C19=1.5416       C22-H23=1.0958       C22-H24=1.0970       
H23-C22=1.0958       H24-C22=1.0970       C25-P7=1.8552        C25-H26=1.0966       C25-C27=1.5340       C25-C39=1.5353       
H26-C25=1.0966       C27-C25=1.5340       C27-H28=1.0961       C27-H29=1.0984       C27-C30=1.5414       H28-C27=1.0961       
H29-C27=1.0984       C30-C27=1.5414       C30-H31=1.0989       C30-H32=1.0970       C30-C33=1.5407       H31-C30=1.0989       
H32-C30=1.0970       C33-C30=1.5407       C33-H34=1.0972       C33-H35=1.0991       C33-C36=1.5410       H34-C33=1.0972       
H35-C33=1.0991       C36-C33=1.5410       C36-H37=1.0970       C36-H38=1.0989       C36-C39=1.5431       H37-C36=1.0970       
H38-C36=1.0989       C39-C25=1.5353       C39-C36=1.5431       C39-H40=1.0961       C39-H41=1.0977       H40-C39=1.0961       
H41-C39=1.0977       C42-P7=1.8586        C42-H43=1.0966       C42-C44=1.5367       C42-C56=1.5378       H43-C42=1.0966       
C44-C42=1.5367       C44-H45=1.0970       C44-H46=1.0954       C44-C47=1.5407       H45-C44=1.0970       H46-C44=1.0954       
C47-C44=1.5407       C47-H48=1.0990       C47-H49=1.0969       C47-C50=1.5395       H48-C47=1.0990       H49-C47=1.0969       
C50-C47=1.5395       C50-H51=1.0974       C50-H52=1.0991       C50-C53=1.5399       H51-C50=1.0974       H52-C50=1.0991       
C53-C50=1.5399       C53-H54=1.0970       C53-H55=1.0990       C53-C56=1.5427       H54-C53=1.0970       H55-C53=1.0990       
C56-C42=1.5378       C56-C53=1.5427       C56-H57=1.0967       C56-H58=1.0981       H57-C56=1.0967       H58-C56=1.0981       
C59-H60=1.0689       C59-H61=1.0682       C59-Ru62=1.8803      H60-C59=1.0689       H61-C59=1.0682       Ru62-C59=1.8803      
Ru62-Cl63=2.3151     Ru62-Cl64=2.2952     Ru62-P65=2.3193      Cl63-Ru62=2.3151     Cl64-Ru62=2.2952     P65-Ru62=2.3193      
P65-C66=1.8719       P65-C83=1.8588       P65-C100=1.8608      C66-P65=1.8719       C66-H67=1.0971       C66-C68=1.5388       
C66-C80=1.5390       H67-C66=1.0971       C68-C66=1.5388       C68-H69=1.0973       C68-H70=1.0960       C68-C71=1.5430       
H69-C68=1.0973       H70-C68=1.0960       C71-C68=1.5430       C71-H72=1.0971       C71-H73=1.0990       C71-C74=1.5401       
H72-C71=1.0971       H73-C71=1.0990       C74-C71=1.5401       C74-H75=1.0973       C74-H76=1.0991       C74-C77=1.5396       
H75-C74=1.0973       H76-C74=1.0991       C77-C74=1.5396       C77-H78=1.0990       C77-H79=1.0969       C77-C80=1.5400       
H78-C77=1.0990       H79-C77=1.0969       C80-C66=1.5390       C80-C77=1.5400       C80-H81=1.0964       C80-H82=1.0968       
H81-C80=1.0964       H82-C80=1.0968       C83-P65=1.8588       C83-H84=1.0969       C83-C85=1.5353       C83-C97=1.5346       
H84-C83=1.0969       C85-C83=1.5353       C85-H86=1.0946       C85-H87=1.0970       C85-C88=1.5428       H86-C85=1.0946       
H87-C85=1.0970       C88-C85=1.5428       C88-H89=1.0990       C88-H90=1.0970       C88-C91=1.5414       H89-C88=1.0990       
H90-C88=1.0970       C91-C88=1.5414       C91-H92=1.0972       C91-H93=1.0991       C91-C94=1.5413       H92-C91=1.0972       
H93-C91=1.0991       C94-C91=1.5413       C94-H95=1.0969       C94-H96=1.0988       C94-C97=1.5417       H95-C94=1.0969       
H96-C94=1.0988       C97-C83=1.5346       C97-C94=1.5417       C97-H98=1.0967       C97-H99=1.0987       H98-C97=1.0967       
H99-C97=1.0987       C100-P65=1.8608      C100-H101=1.0964     C100-C102=1.5367     C100-C114=1.5345     H101-C100=1.0964     
C102-C100=1.5367     C102-H103=1.0977     C102-H104=1.0956     C102-C105=1.5419     H103-C102=1.0977     H104-C102=1.0956     
C105-C102=1.5419     C105-H106=1.0990     C105-H107=1.0970     C105-C108=1.5397     H106-C105=1.0990     H107-C105=1.0970     
C108-C105=1.5397     C108-H109=1.0972     C108-H110=1.0991     C108-C111=1.5398     H109-C108=1.0972     H110-C108=1.0991     
C111-C108=1.5398     C111-H112=1.0969     C111-H113=1.0989     C111-C114=1.5417     H112-C111=1.0969     H113-C111=1.0989     
C114-C100=1.5345     C114-C111=1.5417     C114-H115=1.0966     C114-H116=1.0966     H115-C114=1.0966     H116-C114=1.0966     
 C  H  Rav=1.0958 sigma=0.0068  Rmin=1.0682  Rmax=1.0991    70
 C  C  Rav=1.5395 sigma=0.0026  Rmin=1.5340  Rmax=1.5431    36
 P  C  Rav=1.8607 sigma=0.0053  Rmin=1.8552  Rmax=1.8719     6
 Ru C  Rav=1.8804 sigma=0.0001  Rmin=1.8803  Rmax=1.8806     2
 Ru P  Rav=2.3257 sigma=0.0064  Rmin=2.3193  Rmax=2.3322     2
 Ru Cl Rav=2.3050 sigma=0.0174  Rmin=2.2824  Rmax=2.3273     4
 
 selected bond angles (degree)
 --------------------
H3-C2-H1=110.06                Ru4-C2-H1=123.00               Ru4-C2-H3=126.92               Cl5-Ru4-C2=105.51              
Cl6-Ru4-C2=100.92              Cl6-Ru4-Cl5=151.28             P7-Ru4-C2= 97.64               P7-Ru4-Cl5= 89.39              
P7-Ru4-Cl6= 98.13              C8-P7-Ru4=114.22               C25-P7-Ru4=107.82              C25-P7-C8=109.61               
C42-P7-Ru4=105.03              C42-P7-C8=111.28               C42-P7-C25=108.66              H9-C8-P7=104.99                
C10-C8-P7=112.67               C10-C8-H9=108.23               C22-C8-P7=111.68               C22-C8-H9=108.67               
C22-C8-C10=110.34              H11-C10-C8=110.60              H12-C10-C8=109.12              H12-C10-H11=105.15             
C13-C10-C8=111.35              C13-C10-H11=110.82             C13-C10-H12=109.60             
 
 selected dihedral angles (degree)
 ---------------------------------
Cl5-Ru4-C2-H1= 92.11          Cl5-Ru4-C2-H3=273.76          Cl6-Ru4-C2-H1=283.46          Cl6-Ru4-C2-H3=105.11          
P7-Ru4-C2-H1=183.60           P7-Ru4-C2-H3=  5.25           C8-P7-Ru4-C2= 46.35           C8-P7-Ru4-Cl5=151.92          
C8-P7-Ru4-Cl6=304.10          C25-P7-Ru4-C2=284.28          C25-P7-Ru4-Cl5= 29.84         C25-P7-Ru4-Cl6=182.02         
C42-P7-Ru4-C2=168.54          C42-P7-Ru4-Cl5=274.11         C42-P7-Ru4-Cl6= 66.28         H9-C8-P7-Ru4=269.42           
H9-C8-P7-C25= 30.51           H9-C8-P7-C42=150.72           C10-C8-P7-Ru4= 26.99          C10-C8-P7-C25=148.08          
C10-C8-P7-C42=268.29          C22-C8-P7-Ru4=151.83          C22-C8-P7-C25=272.93          C22-C8-P7-C42= 33.14          
H11-C10-C8-P7=305.73          H11-C10-C8-H9= 61.37          H11-C10-C8-C22=180.15         H12-C10-C8-P7= 60.93          
H12-C10-C8-H9=176.57          H12-C10-C8-C22=295.35         C13-C10-C8-P7=182.04          C13-C10-C8-H9=297.68          
C13-C10-C8-C22= 56.47         
 
 CMA Distance (Angstroems)
 ---------------------------
R(CMA):  9.3644
           -------------------------------------------------
          |                Final Singlepoint                |
           -------------------------------------------------
         :::::::::::::::::::::::::::::::::::::::::::::::::::::
         ::                     SUMMARY                     ::
         :::::::::::::::::::::::::::::::::::::::::::::::::::::
         :: total energy             -16.803716152303 Eh    ::
         :: gradient norm              0.000435965456 Eh/a0 ::
         ::.................................................::
         :: bond energy              -17.650463168384 Eh    ::
         :: angle energy               0.067121076077 Eh    ::
         :: torsion energy             0.061110635291 Eh    ::
         :: repulsion energy           1.022652783992 Eh    ::
         :: electrostat energy        -0.144884143821 Eh    ::
         :: dispersion energy         -0.141965939653 Eh    ::
         :: HB energy                  0.000000000000 Eh    ::
         :: XB energy                  0.000000000000 Eh    ::
         :: bonded atm energy         -0.017719901716 Eh    ::
         :: external energy            0.000000000000 Eh    ::
         :: add. restraining           0.000432505912 Eh    ::
         :: total charge              -0.000000000000 e     ::
         :::::::::::::::::::::::::::::::::::::::::::::::::::::

           -------------------------------------------------
          |                Property Printout                |
           -------------------------------------------------

molecular dipole:
                 x           y           z       tot (Debye)
 q only:       -0.233      -0.248       0.324       1.193
           -------------------------------------------------
          |                Geometry Summary                 |
           -------------------------------------------------

      molecular mass/u    :      932.8529713
   center of mass at/Å    :       -4.7918431       1.2949773       1.3254678
  moments of inertia/u·Å² :        0.6091132E+04   0.2656701E+05   0.2722641E+05
rotational constants/cm⁻¹ :        0.2767570E-02   0.6345325E-03   0.6191648E-03

 * 107 selected distances

     #   Z          #   Z                                           value/Å
     1   1 H        2   6 C                                       1.0688500
     2   6 C        3   1 H                                       1.0689777
     2   6 C        4  44 Ru                                      1.8805518
     4  44 Ru       5  17 Cl                                      2.2823765
     4  44 Ru       6  17 Cl                                      2.3273184
     4  44 Ru       7  15 P                                       2.3321577 (max)
     7  15 P        8   6 C                                       1.8590295
     8   6 C        9   1 H                                       1.0969912
     8   6 C       10   6 C                                       1.5367893
    10   6 C       11   1 H                                       1.0973267
    10   6 C       12   1 H                                       1.0955167
    10   6 C       13   6 C                                       1.5419051
    13   6 C       14   1 H                                       1.0969960
    13   6 C       15   1 H                                       1.0989327
    16   6 C       17   1 H                                       1.0971684
    16   6 C       18   1 H                                       1.0990995
    19   6 C       20   1 H                                       1.0989197
    19   6 C       21   1 H                                       1.0969723
     8   6 C       22   6 C                                       1.5368838
    19   6 C       22   6 C                                       1.5415547
    22   6 C       23   1 H                                       1.0958444
    22   6 C       24   1 H                                       1.0970483
     7  15 P       25   6 C                                       1.8552451
    25   6 C       26   1 H                                       1.0965646
    25   6 C       27   6 C                                       1.5340209
    27   6 C       28   1 H                                       1.0961300
    27   6 C       29   1 H                                       1.0984095
    27   6 C       30   6 C                                       1.5413695
    30   6 C       31   1 H                                       1.0988877
    30   6 C       32   1 H                                       1.0969528
    33   6 C       34   1 H                                       1.0971805
    33   6 C       35   1 H                                       1.0991270
    36   6 C       37   1 H                                       1.0969850
    36   6 C       38   1 H                                       1.0989062
    25   6 C       39   6 C                                       1.5353224
    39   6 C       40   1 H                                       1.0960864
    39   6 C       41   1 H                                       1.0976518
     7  15 P       42   6 C                                       1.8585827
    42   6 C       43   1 H                                       1.0965827
    42   6 C       44   6 C                                       1.5366932
    44   6 C       45   1 H                                       1.0969877
    44   6 C       46   1 H                                       1.0954227
    44   6 C       47   6 C                                       1.5406991
    47   6 C       48   1 H                                       1.0989694
    47   6 C       49   1 H                                       1.0969369
    47   6 C       50   6 C                                       1.5394915
    50   6 C       51   1 H                                       1.0973679
    50   6 C       52   1 H                                       1.0990852
    53   6 C       54   1 H                                       1.0969712
    53   6 C       55   1 H                                       1.0989524
    42   6 C       56   6 C                                       1.5377817
    53   6 C       56   6 C                                       1.5427419
    56   6 C       57   1 H                                       1.0967115
    56   6 C       58   1 H                                       1.0980542
    59   6 C       60   1 H                                       1.0688941
    59   6 C       61   1 H                                       1.0681604 (min)
    59   6 C       62  44 Ru                                      1.8802998
    62  44 Ru      63  17 Cl                                      2.3151381
    62  44 Ru      64  17 Cl                                      2.2951565
    62  44 Ru      65  15 P                                       2.3193337
    65  15 P       66   6 C                                       1.8719441
    66   6 C       67   1 H                                       1.0970995
    66   6 C       68   6 C                                       1.5387720
    68   6 C       69   1 H                                       1.0973170
    68   6 C       70   1 H                                       1.0959679
    71   6 C       72   1 H                                       1.0970573
    71   6 C       73   1 H                                       1.0989761
    74   6 C       75   1 H                                       1.0973250
    74   6 C       76   1 H                                       1.0991150
    74   6 C       77   6 C                                       1.5395661
    77   6 C       78   1 H                                       1.0989965
    77   6 C       79   1 H                                       1.0969493
    66   6 C       80   6 C                                       1.5390042
    77   6 C       80   6 C                                       1.5399832
    80   6 C       81   1 H                                       1.0964092
    80   6 C       82   1 H                                       1.0967645
    65  15 P       83   6 C                                       1.8588328
    83   6 C       84   1 H                                       1.0969105
    83   6 C       85   6 C                                       1.5352631
    85   6 C       86   1 H                                       1.0945832
    85   6 C       87   1 H                                       1.0970237
    88   6 C       89   1 H                                       1.0989581
    88   6 C       90   1 H                                       1.0969872
    91   6 C       92   1 H                                       1.0971576
    91   6 C       93   1 H                                       1.0991236
    94   6 C       95   1 H                                       1.0969245
    94   6 C       96   1 H                                       1.0988389
    83   6 C       97   6 C                                       1.5345685
    94   6 C       97   6 C                                       1.5416572
    97   6 C       98   1 H                                       1.0967032
    97   6 C       99   1 H                                       1.0986518
    65  15 P      100   6 C                                       1.8608395
   100   6 C      101   1 H                                       1.0964438
   100   6 C      102   6 C                                       1.5366634
   102   6 C      103   1 H                                       1.0976849
   102   6 C      104   1 H                                       1.0956392
   102   6 C      105   6 C                                       1.5418636
   105   6 C      106   1 H                                       1.0989653
   105   6 C      107   1 H                                       1.0970096
   108   6 C      109   1 H                                       1.0971980
   108   6 C      110   1 H                                       1.0990694
   111   6 C      112   1 H                                       1.0969426
   111   6 C      113   1 H                                       1.0989471
   100   6 C      114   6 C                                       1.5344600
   111   6 C      114   6 C                                       1.5417097
   114   6 C      115   1 H                                       1.0965894
   114   6 C      116   1 H                                       1.0966005

 * 6 distinct bonds (by element types)

   Z      Z             #   av. dist./Å        max./Å        min./Å
   1 H    6 C          70     1.0957936     1.0991270     1.0681604
   6 C    6 C          23     1.5386419     1.5427419     1.5340209
   6 C   15 P           6     1.8607456     1.8719441     1.8552451
   6 C   44 Ru          2     1.8804258     1.8805518     1.8802998
  15 P   44 Ru          2     2.3257457     2.3321577     2.3193337
  17 Cl  44 Ru          4     2.3049974     2.3273184     2.2823765


optimized geometry written to: xtbopt.sdf


           -------------------------------------------------
          | TOTAL ENERGY              -16.803716152303 Eh   |
          | GRADIENT NORM               0.000435965456 Eh/α |
           -------------------------------------------------
########################################################################
[WARNING] Runtime exception occurred
-1- gfnff_setup: Could not read topology file.
########################################################################

------------------------------------------------------------------------
 * finished run on 2026/02/05 at 16:53:42.450     
------------------------------------------------------------------------
 total:
 * wall-time:     0 d,  0 h,  0 min,  0.555 sec
 *  cpu-time:     0 d,  0 h,  0 min,  6.043 sec
 * ratio c/w:    10.892 speedup
 SCF:
 * wall-time:     0 d,  0 h,  0 min,  0.014 sec
 *  cpu-time:     0 d,  0 h,  0 min,  0.156 sec
 * ratio c/w:    10.982 speedup
 ANC optimizer:
 * wall-time:     0 d,  0 h,  0 min,  0.428 sec
 *  cpu-time:     0 d,  0 h,  0 min,  5.123 sec
 * ratio c/w:    11.960 speedup

normal termination of xtb
5.87user 0.17system 0:00.56elapsed 1078%CPU (0avgtext+0avgdata 64524maxresident)k
0inputs+11104outputs (18major+10207minor)pagefaults 0swaps
