116
 energy: -16.782854715326 gnorm: 0.095694488037 xtb: 6.7.1 (edcfbbe)
H            0.00000000000000        0.00000000000000        0.00000000000000
C            0.00000000000000        0.00000000000000        1.09350000000000
H            1.00280000000000        0.00000000000000        1.52030000000000
Ru          -1.62330000000000       -0.04070000000000        2.03110000000000
Cl          -2.05350000000000       -2.24880000000000        2.40950000000000
Cl          -2.32290000000000        2.16590000000000        1.79190000000000
P           -0.73740000000000        0.12590000000000        4.18330000000000
C            0.51740000000000        1.46450000000000        4.54500000000000
H            1.48120000000000        0.95130000000000        4.42320000000000
C            0.46450000000000        2.58650000000000        3.50630000000000
H            0.47040000000000        2.16040000000000        2.49940000000000
H           -0.45990000000000        3.15520000000000        3.62190000000000
C            1.65300000000000        3.52670000000000        3.68500000000000
H            2.58180000000000        2.97420000000000        3.52400000000000
H            1.60510000000000        4.32380000000000        2.94110000000000
C            1.65270000000000        4.12360000000000        5.08870000000000
H            0.75850000000000        4.73710000000000        5.22010000000000
H            2.52310000000000        4.76890000000000        5.22210000000000
C            1.66220000000000        3.01460000000000        6.13550000000000
H            1.62950000000000        3.44770000000000        7.13760000000000
H            2.58910000000000        2.44220000000000        6.04990000000000
C            0.46750000000000        2.08020000000000        5.94430000000000
H           -0.45080000000000        2.65790000000000        6.06140000000000
H            0.48800000000000        1.31150000000000        6.71730000000000
C            0.10190000000000       -1.43020000000000        4.76940000000000
H           -0.68660000000000       -2.19200000000000        4.73160000000000
C            0.67490000000000       -1.38030000000000        6.18420000000000
H            1.49510000000000       -0.66160000000000        6.22890000000000
H           -0.09150000000000       -1.07830000000000        6.90080000000000
C            1.21270000000000       -2.75800000000000        6.56950000000000
H            1.61920000000000       -2.72290000000000        7.58280000000000
H            0.39550000000000       -3.48270000000000        6.56080000000000
C            2.29250000000000       -3.20220000000000        5.58840000000000
H            3.13370000000000       -2.50630000000000        5.63580000000000
H            2.66190000000000       -4.19150000000000        5.86460000000000
C            1.73640000000000       -3.23160000000000        4.16840000000000
H            0.93630000000000       -3.97180000000000        4.10590000000000
H            2.51910000000000       -3.52530000000000        3.46630000000000
C            1.18160000000000       -1.86430000000000        3.77690000000000
H            1.99560000000000       -1.13540000000000        3.75800000000000
H            0.74320000000000       -1.91920000000000        2.77500000000000
C           -2.11940000000000        0.36500000000000        5.41360000000000
H           -1.66770000000000        0.60210000000000        6.38420000000000
C           -3.00100000000000        1.53290000000000        4.97040000000000
H           -2.40200000000000        2.43200000000000        4.80440000000000
H           -3.49070000000000        1.27460000000000        4.02340000000000
C           -4.09480000000000        1.81070000000000        5.99410000000000
H           -4.70490000000000        2.64920000000000        5.65400000000000
H           -3.64450000000000        2.08230000000000        6.95270000000000
C           -4.96660000000000        0.57160000000000        6.16220000000000
H           -5.47120000000000        0.36440000000000        5.21590000000000
H           -5.73660000000000        0.75170000000000        6.91510000000000
C           -4.11380000000000       -0.62700000000000        6.56770000000000
H           -3.67570000000000       -0.43880000000000        7.55200000000000
H           -4.73800000000000       -1.52010000000000        6.64900000000000
C           -2.99110000000000       -0.88340000000000        5.56330000000000
H           -3.41790000000000       -1.15130000000000        4.59210000000000
H           -2.39910000000000       -1.73290000000000        5.90810000000000
C           -7.00590000000000        4.84200000000000       -1.80460000000000
H           -6.16530000000000        5.53590000000000       -1.72380000000000
H           -7.68140000000000        5.08390000000000       -2.62280000000000
Ru          -7.19520000000000        3.45450000000000       -0.55810000000000
Cl          -5.76730000000000        1.75320000000000       -1.20950000000000
Cl          -8.43640000000000        4.56390000000000        1.02080000000000
P           -8.97050000000000        2.28380000000000       -1.48640000000000
C           -9.24130000000000        0.75850000000000       -0.42930000000000
H          -10.32190000000000        0.55900000000000       -0.44030000000000
C           -8.52270000000000       -0.52120000000000       -0.86290000000000
H           -8.81900000000000       -0.81360000000000       -1.87140000000000
H           -7.44010000000000       -0.37500000000000       -0.84910000000000
C           -8.87400000000000       -1.66040000000000        0.09520000000000
H           -9.95090000000000       -1.84970000000000        0.05440000000000
H           -8.36140000000000       -2.56930000000000       -0.22530000000000
C           -8.46850000000000       -1.31540000000000        1.52340000000000
H           -7.38440000000000       -1.19100000000000        1.56830000000000
H           -8.73990000000000       -2.13080000000000        2.19700000000000
C           -9.15100000000000       -0.02500000000000        1.96380000000000
H           -8.83680000000000        0.23730000000000        2.97630000000000
H          -10.23570000000000       -0.16700000000000        1.98040000000000
C           -8.81400000000000        1.10900000000000        1.00210000000000
H           -7.71990000000000        1.26490000000000        1.01940000000000
H           -9.29710000000000        2.03380000000000        1.33110000000000
C           -8.63350000000000        1.58510000000000       -3.18130000000000
H           -7.91050000000000        0.78510000000000       -2.97500000000000
C           -7.92600000000000        2.55940000000000       -4.12230000000000
H           -8.59990000000000        3.36500000000000       -4.41740000000000
H           -7.06620000000000        3.00100000000000       -3.61000000000000
C           -7.46400000000000        1.81300000000000       -5.37230000000000
H           -6.96410000000000        2.50600000000000       -6.05130000000000
H           -6.74180000000000        1.04480000000000       -5.08780000000000
C           -8.65000000000000        1.16010000000000       -6.07690000000000
H           -9.33640000000000        1.93610000000000       -6.42340000000000
H           -8.30410000000000        0.60590000000000       -6.95160000000000
C           -9.38880000000000        0.22150000000000       -5.12730000000000
H           -8.72480000000000       -0.59490000000000       -4.83390000000000
H          -10.25270000000000       -0.21550000000000       -5.63280000000000
C           -9.84770000000000        0.97930000000000       -3.88240000000000
H          -10.53040000000000        1.77380000000000       -4.19020000000000
H          -10.38670000000000        0.30410000000000       -3.21330000000000
C          -10.67090000000000        3.03450000000000       -1.57300000000000
H          -11.28540000000000        2.37920000000000       -2.20290000000000
C          -11.35340000000000        3.18400000000000       -0.21240000000000
H          -11.48690000000000        2.21300000000000        0.26770000000000
H          -10.73450000000000        3.80910000000000        0.43290000000000
C          -12.72140000000000        3.84230000000000       -0.38020000000000
H          -13.20010000000000        3.93490000000000        0.59660000000000
H          -13.35860000000000        3.21240000000000       -1.00740000000000
C          -12.57710000000000        5.21730000000000       -1.02140000000000
H          -11.97240000000000        5.85360000000000       -0.37310000000000
H          -13.55770000000000        5.68340000000000       -1.13700000000000
C          -11.89410000000000        5.08790000000000       -2.37750000000000
H          -12.52280000000000        4.49420000000000       -3.04680000000000
H          -11.76370000000000        6.07380000000000       -2.82770000000000
C          -10.53520000000000        4.41210000000000       -2.22250000000000
H           -9.88700000000000        5.02230000000000       -1.58460000000000
H          -10.05860000000000        4.31940000000000       -3.20020000000000
116
 energy: -16.793691203026 gnorm: 0.063593887511 xtb: 6.7.1 (edcfbbe)
H            0.00514179789896        0.00068624740979        0.02422274867720
C            0.00114745611859        0.00096941695156        1.10211391578669
H            0.99296968485545        0.00227706124193        1.51689069185777
Ru          -1.62713057258565       -0.03858123822214        2.04710717358705
Cl          -2.05561740177163       -2.24797041042022        2.42488031122243
Cl          -2.33154820875863        2.16589349973436        1.80701763885118
P           -0.73922603050665        0.13015096430818        4.19716174469338
C            0.51840796030753        1.46703635619164        4.53378771608420
H            1.48059220722886        0.95132166560920        4.41482638454558
C            0.46424298052616        2.58690935481806        3.49094128472083
H            0.46136877201984        2.16147347148299        2.48108246767248
H           -0.46915571540632        3.14731885343600        3.60777049845666
C            1.65363453169353        3.53890436685841        3.67407802269078
H            2.58622478680050        2.98715446129948        3.50928461998441
H            1.61359641928738        4.33869163653344        2.92554927178426
C            1.65878123699560        4.13234338229489        5.08931801700831
H            0.76421367967494        4.75118530057885        5.22274259699294
H            2.52786625698087        4.78730558857864        5.22456834667227
C            1.66460819685492        3.02011411757657        6.14575309445622
H            1.63702925328968        3.45072936898802        7.15408542190479
H            2.59624036092238        2.44861472715482        6.06395574899919
C            0.47168676282910        2.07393748600002        5.94267109534864
H           -0.45551394871993        2.64381047750759        6.06133532365711
H            0.47816430616244        1.29485757852664        6.71210176398556
C            0.09386886979618       -1.43633462874448        4.75602267854809
H           -0.69939160941259       -2.19344785430124        4.72250642865008
C            0.66313638249837       -1.38384644114055        6.17897819954825
H            1.47856168219542       -0.65396414308832        6.21958727055777
H           -0.10479267991667       -1.06554537652881        6.89334993731208
C            1.21483226718504       -2.76054725819301        6.57850986597876
H            1.61826517885962       -2.72641433499708        7.59797042774276
H            0.39739268528512       -3.49025807880333        6.57704522362695
C            2.29691744259324       -3.21190643847206        5.58971885217692
H            3.14216568073907       -2.51565528286828        5.63798811309119
H            2.67730795407320       -4.20159321502246        5.86954034582951
C            1.74489134647749       -3.24005695696381        4.15848668768979
H            0.94689471149590       -3.98788419024477        4.09279983409258
H            2.52915521923198       -3.53987492097728        3.45352890877802
C            1.17712687223707       -1.86962413474383        3.76355984583436
H            1.98556592233842       -1.13014751757526        3.74802804145442
H            0.74794098089700       -1.91567756518632        2.75502668367882
C           -2.12915847555709        0.37031504689580        5.40665058899038
H           -1.67489962635546        0.60477714702251        6.37680372503665
C           -3.00099820285707        1.54752705806323        4.96449669287039
H           -2.39307616936408        2.44380509860484        4.79581529506556
H           -3.47566682471504        1.29270479844066        4.00808535179813
C           -4.10581768874255        1.82074563915544        5.99045036121296
H           -4.71767477441767        2.66920886190688        5.66197895765006
H           -3.65368125814407        2.09289771918320        6.95131603826890
C           -4.97839063350445        0.57177436879763        6.16662563457227
H           -5.48871309964116        0.35912920758726        5.22040214734349
H           -5.75666431042409        0.75308227185537        6.91760352843079
C           -4.12415909796271       -0.63675829368085        6.57174432315095
H           -3.68637600679369       -0.45081006490858        7.55971332773161
H           -4.74953526777865       -1.53331619597022        6.66105981637183
C           -2.99258047336528       -0.88678360152910        5.56361152189596
H           -3.41452913505117       -1.15803654649789        4.58922737242774
H           -2.38674676315297       -1.73678862622769        5.89762915947862
C           -7.00908838548081        4.83456625948817       -1.80787476678904
H           -6.18283137063100        5.52216576980819       -1.73130528091753
H           -7.67129070545821        5.07667747010925       -2.61852158619263
Ru          -7.20108120007771        3.44060492707939       -0.55699467469701
Cl          -5.76870176792765        1.74162661404254       -1.20424265607868
Cl          -8.44579049182949        4.54836709199730        1.02099137562658
P           -8.97338935064401        2.26830381858867       -1.48668329024437
C           -9.23674048522659        0.75906039192414       -0.41614284692793
H          -10.31684723948078        0.56289519427440       -0.43499712943526
C           -8.52381165319420       -0.52310650108129       -0.86418491075201
H           -8.81599019889650       -0.79988119277196       -1.88317736616598
H           -7.44012990559889       -0.36392402026748       -0.86052418285829
C           -8.86570939752258       -1.67532604819163        0.09365233002112
H           -9.94429914973764       -1.86933951741130        0.05151582551473
H           -8.35784625341359       -2.59181267462498       -0.22912476150400
C           -8.46864362634156       -1.32608544968038        1.53281617547007
H           -7.38108508494784       -1.20087396402025        1.58340624484598
H           -8.73233287440913       -2.14725402232823        2.20992028338892
C           -9.15186873443278       -0.02846470557306        1.98127861998101
H           -8.84400662970801        0.23379071750334        3.00045015743134
H          -10.23860363373575       -0.17221259600694        1.99964053769778
C           -8.81669563584302        1.11217494099145        1.01619986350900
H           -7.72831731495280        1.27493364034337        1.03051153107391
H           -9.29375354208990        2.04585965112216        1.33851649301026
C           -8.61925301000983        1.58412309978693       -3.17954783637422
H           -7.90063041779555        0.78068836389586       -2.97264234004880
C           -7.91156334026048        2.56229101652972       -4.12026790567786
H           -8.59283740993854        3.37040254064156       -4.40384186396850
H           -7.05395953746593        3.01386917241179       -3.60815504397314
C           -7.45416504272753        1.82038181171586       -5.38431952827890
H           -6.94736306118308        2.51322906686855       -6.06592439826452
H           -6.72569095276702        1.05143285428956       -5.10377237142432
C           -8.64636357214602        1.15675077730695       -6.08843526273329
H           -9.33481629706003        1.93413908407170       -6.43889722077135
H           -8.30516954613755        0.60520576486954       -6.97265107371727
C           -9.39435870869508        0.21548405523482       -5.13436648238037
H           -8.73177601489873       -0.60775624585816       -4.84440464411159
H          -10.26169891355142       -0.22839312763182       -5.63791968885602
C           -9.84046461406432        0.97400984727985       -3.87617790745602
H          -10.52652188866971        1.77471617861515       -4.17334221491493
H          -10.38611573303410        0.30789165712321       -3.19733869240046
C          -10.66135784843587        3.04473596989230       -1.57194070853871
H          -11.27628628074045        2.39022680742773       -2.20216219875390
C          -11.35008760736623        3.18140522558834       -0.20821933866998
H          -11.46876928782513        2.20414307471009        0.27293210179462
H          -10.72454928125000        3.79996095718147        0.44272407295699
C          -12.72580807627680        3.84576480851306       -0.36656838355184
H          -13.21451268790793        3.93445504389238        0.61101326664164
H          -13.36544953252584        3.21217498197466       -0.99263097113037
C          -12.58545645405902        5.22464379751904       -1.02079720006739
H          -11.98394128746401        5.86923073721522       -0.37047457744451
H          -13.56884147058370        5.69691153617920       -1.13269826853092
C          -11.89392827850974        5.10000260313761       -2.38314796930042
H          -12.52289214740919        4.50494178397083       -3.05567230077828
H          -11.77219683320590        6.08822988176531       -2.84227378311402
C          -10.52743843740444        4.41957396863342       -2.23181997613127
H           -9.87594573210481        5.03487626011268       -1.59920543713592
H          -10.04233193498737        4.32418155226885       -3.20938692041156
116
 energy: -16.798257958952 gnorm: 0.136498016023 xtb: 6.7.1 (edcfbbe)
H            0.01307840951568       -0.00106063435537        0.05548050102961
C           -0.00521531763767        0.00383223940582        1.11988604897358
H            0.98276501460288        0.00491213920004        1.52059756866158
Ru          -1.62715082437165       -0.03999285788136        2.06516621993893
Cl          -2.05664974362184       -2.24820495615748        2.44842262182637
Cl          -2.34098215535792        2.16446579026148        1.82272655560861
P           -0.74267146203373        0.13627675922801        4.21660844371636
C            0.52018573904396        1.47021093791025        4.51747458207171
H            1.48072121036921        0.95238147305279        4.40111011636961
C            0.46461310618112        2.58936378437058        3.47285496266959
H            0.45048703542011        2.16804533113892        2.45927120283462
H           -0.47875725756827        3.13834265483942        3.59005330643850
C            1.65322941564492        3.55504276150897        3.66157863166457
H            2.58975436514100        3.00659422445732        3.49128004398210
H            1.62351622268218        4.35637871034907        2.90868946493532
C            1.66429328458686        4.14300471098691        5.08888326556602
H            0.77135459717982        4.76802930041045        5.22558637010503
H            2.52937011574910        4.80927290922143        5.22676508642922
C            1.66629600607189        3.02657634337081        6.15369149897062
H            1.64489131536974        3.45211441086953        7.16825123991577
H            2.60327401326607        2.45826136202370        6.07862541165421
C            0.47770320697270        2.06688931587641        5.93654791183454
H           -0.45944045835688        2.62520543831568        6.05873542999339
H            0.46653007140527        1.27764258525843        6.70103934927744
C            0.08217467069570       -1.44584195839978        4.73634023784332
H           -0.71549033378091       -2.19778967298986        4.70678067007283
C            0.64646971220889       -1.39039958806248        6.16811605440700
H            1.45360173732725       -0.64675915500682        6.20482792371096
H           -0.12135090258714       -1.05243903283406        6.87894557616794
C            1.21586614601388       -2.76309715824319        6.58463182526822
H            1.61349389982441       -2.72903828497941        7.61020655790178
H            0.40093898643841       -3.49949709814282        6.59430178670665
C            2.30123715762752       -3.22190358713947        5.58977441356338
H            3.15053876405541       -2.52684648276050        5.63954494744636
H            2.69560292027955       -4.20930917680706        5.87451405191058
C            1.75491902652957       -3.25002925780910        4.14700884605108
H            0.96239911135032       -4.00755726912868        4.07699617895338
H            2.53936983257288       -3.55739543770791        3.43984540355025
C            1.17090600835170       -1.87830232123974        3.74702247237594
H            1.97076359527668       -1.12621291116642        3.73466654307620
H            0.75653347195708       -1.91452363733404        2.73035413186444
C           -2.14318910275544        0.37851434442604        5.39750580934707
H           -1.68579600699518        0.60986472512919        6.36697026948635
C           -3.00549336552091        1.56496603483290        4.95851952621697
H           -2.38845554028425        2.45768719331541        4.78724704291486
H           -3.46094291917663        1.31784755025997        3.99034552652881
C           -4.12209472340577        1.83188108772896        5.98607504787434
H           -4.73443342083629        2.69143155957035        5.67415643056357
H           -3.66881559983863        2.10508694064435        6.94841404637842
C           -4.99417171834513        0.57262359568646        6.17074196038959
H           -5.51082004205685        0.35340721632673        5.22636093860933
H           -5.78223952572890        0.75446928021992        6.91686051534328
C           -4.13806642034386       -0.64546266326817        6.57502477780347
H           -3.70214635872489       -0.46430768458715        7.56687404013034
H           -4.76296570607973       -1.54525412723434        6.67434580382341
C           -2.99748690772802       -0.88729248594236        5.56340140392507
H           -3.41303635404827       -1.16417840328581        4.58636639363869
H           -2.37719299510041       -1.73708139783485        5.88371774543831
C           -7.01408768592325        4.81449873499241       -1.80529513272352
H           -6.20559022135914        5.50412632580124       -1.73903015461277
H           -7.66401395290900        5.06285400265770       -2.61332679586156
Ru          -7.20948052237227        3.42607608445759       -0.55689382879496
Cl          -5.77043812833970        1.72539695994711       -1.19652087939994
Cl          -8.45957279977982        4.52787998489413        1.02063129238799
P           -8.97693320772816        2.24515435015879       -1.48752366158157
C           -9.23080709415860        0.75878495062268       -0.39747984111987
H          -10.31042926838869        0.56609992053668       -0.42723459141532
C           -8.52377377675346       -0.52538870864597       -0.86073604618864
H           -8.80942486226965       -0.78361004141564       -1.89047738038565
H           -7.44022036487870       -0.35050050263344       -0.87112284393218
C           -8.85379715817022       -1.69215572687996        0.09461548401805
H           -9.93260790957261       -1.89417164617779        0.04965909374094
H           -8.35296776479159       -2.61567888294258       -0.23163583834157
C           -8.46770755966627       -1.34067814507345        1.54579892973176
H           -7.37787642577213       -1.21402037971901        1.60448742377799
H           -8.71962022497070       -2.16857866713535        2.22512685086340
C           -9.15333600579838       -0.03736811031990        2.00372882562273
H           -8.85557364611453        0.22402066987142        3.02994724174129
H          -10.24117321544703       -0.18383082645217        2.02454180254582
C           -8.82046087318935        1.11134378790957        1.03671563921297
H           -7.73819438089440        1.28437661131603        1.05021821875697
H           -9.28846788344060        2.05463704494713        1.35270601309717
C           -8.59698425671147        1.58132766013455       -3.17762026409003
H           -7.88290411043413        0.77435533393340       -2.97214409573159
C           -7.89172186602148        2.56325278419732       -4.11933162905416
H           -8.58056378619371        3.37391388137416       -4.38703677859130
H           -7.03692174580756        3.02769742549659       -3.61050093054161
C           -7.44260094529782        1.82859105152332       -5.40013904058957
H           -6.92827415884849        2.52006054376812       -6.08346676210531
H           -6.70637288822896        1.06007946290005       -5.12779132240293
C           -8.64186021271007        1.15418925711283       -6.10179543562174
H           -9.33194506048539        1.93160199895491       -6.45700428154292
H           -8.30857229355052        0.60761093581834       -6.99690032179968
C           -9.39803939997952        0.21059549833990       -5.14238140574382
H           -8.73928085893198       -0.62152826744128       -4.85956508833877
H          -10.26873334622978       -0.24089585609997       -5.64122377955712
C           -9.82644973971016        0.96784605752211       -3.86850555761727
H          -10.51619443841196        1.77498572825420       -4.15062504818572
H          -10.38101527829529        0.31457542669548       -3.17936333118145
C          -10.64695855603989        3.05988797830031       -1.57011723408422
H          -11.26336226167466        2.40711262164163       -2.20045487225288
C          -11.34340501268278        3.18274906810696       -0.20406061062164
H          -11.44354700998968        2.20041814705341        0.27893463583272
H          -10.71194277114083        3.79169808471937        0.45450102160563
C          -12.72719603964770        3.85166062343232       -0.35134370186341
H          -13.22755144972399        3.93430762276905        0.62512562745701
H          -13.36976049253519        3.21345786974308       -0.97331711019766
C          -12.59377700571616        5.23375098127255       -1.01982580031379
H          -11.99880008517929        5.88894845341336       -0.36849756423420
H          -13.57886080919115        5.71255189573243       -1.12606169209624
C          -11.89338692795651        5.11463419680082       -2.38797398276972
H          -12.52124004503094        4.51889526236205       -3.06421907955892
H          -11.78430858802531        6.10341118877430       -2.85835879344811
C          -10.51825949489243        4.43131023964571       -2.24059549424191
H           -9.86350809118320        5.05415810703372       -1.61696931880382
H          -10.02346904391756        4.33517544092155       -3.21650150088415
116
 energy: -16.799450077626 gnorm: 0.135934595114 xtb: 6.7.1 (edcfbbe)
H            0.02174717333677       -0.00443203706344        0.07215021547924
C           -0.00539422395039       -0.00161900659338        1.13547838498268
H            0.98100916741508        0.00643482541814        1.53172576523687
Ru          -1.63371534775306       -0.03906766094460        2.07664906919871
Cl          -2.05656410558281       -2.25067321646482        2.46658218121687
Cl          -2.34540489405624        2.15971001541931        1.82999658114150
P           -0.74588451863803        0.13981601964132        4.22915794874951
C            0.52178091084948        1.47270335335515        4.50569806216220
H            1.48172651011532        0.95470460221347        4.38783290188515
C            0.46457479713238        2.59398444071447        3.46289632936691
H            0.44564518456440        2.17787495168366        2.44705323696612
H           -0.48294895493486        3.13593290127496        3.57907398536660
C            1.65054782795584        3.56661706978485        3.65454846744140
H            2.58899604911147        3.02310707934571        3.47959890663516
H            1.62471523478579        4.36811309885501        2.90142893061733
C            1.66434600342419        4.15014370225462        5.08620709000588
H            0.77386197524190        4.77763945643242        5.22610503848399
H            2.52572272350424        4.82127729823449        5.22561387085944
C            1.66622305275556        3.03093242728236        6.15145663974703
H            1.64653764203448        3.45211602174564        7.16809883695301
H            2.60613192201919        2.46698880197519        6.08164993777526
C            0.48224138550251        2.06454788344677        5.92812040726754
H           -0.45924089623463        2.61474627759910        6.05426317773525
H            0.46428814441965        1.27204503962916        6.68923961626500
C            0.07330827902411       -1.45404658308674        4.72222175967815
H           -0.72584393206309       -2.20374098706437        4.69152541155059
C            0.63399416034656       -1.39768781055846        6.15684038925698
H            1.43413492726025       -0.64649826070755        6.19292174475473
H           -0.13335594470650       -1.05221412327022        6.86470719664409
C            1.21394992219289       -2.76537901555611        6.58129538719989
H            1.60742992106097       -2.72863434559008        7.60858952230778
H            0.40365376871927       -3.50665154612790        6.59904763488207