
                                 *****************
                                 * O   R   C   A *
                                 *****************

                                            #,                                       
                                            ###                                      
                                            ####                                     
                                            #####                                    
                                            ######                                   
                                           ########,                                 
                                     ,,################,,,,,                         
                               ,,#################################,,                 
                          ,,##########################################,,             
                       ,#########################################, ''#####,          
                    ,#############################################,,   '####,        
                  ,##################################################,,,,####,       
                ,###########''''           ''''###############################       
              ,#####''   ,,,,##########,,,,          '''####'''          '####       
            ,##' ,,,,###########################,,,                        '##       
           ' ,,###''''                  '''############,,,                           
         ,,##''                                '''############,,,,        ,,,,,,###''
      ,#''                                            '''#######################'''  
     '                                                          ''''####''''         
             ,#######,   #######,   ,#######,      ##                                
            ,#'     '#,  ##    ##  ,#'     '#,    #''#        ,####,   ,####,        
            ##       ##  ##   ,#'  ##            #'  '#       #'       #'  '#        
            ##       ##  #######   ##           ,######,      #####,   #    #        
            '#,     ,#'  ##    ##  '#,     ,#' ,#      #,     #,   #   #,  ,#        
             '#######'   ##     ##  '#######'  #'      '#     '####' # '####'        



                #########################################################
                #                        -***-                          #
                #          Department of theory and spectroscopy        #
                #                                                       #
                #                      Frank Neese                      #
                #                                                       #
                #     Directorship, Architecture, Infrastructure        #
                #                    SHARK, DRIVERS                     #
                #        Core code/Algorithms in most modules           #
                #                                                       #
                #        Max Planck Institute fuer Kohlenforschung      #
                #                Kaiser Wilhelm Platz 1                 #
                #                 D-45470 Muelheim/Ruhr                 #
                #                      Germany                          #
                #                                                       #
                #                  All rights reserved                  #
                #                        -***-                          #
                #########################################################


                         Program Version 6.0.1  -  RELEASE   -


 With contributions from (in alphabetic order):
[Max-Planck-Institut fuer Kohlenforschung]                               
  Daniel Aravena         : Magnetic Suceptibility                        
  Michael Atanasov       : Ab Initio Ligand Field Theory (pilot matlab implementation)
  Alexander A. Auer      : GIAO ZORA, VPT2 properties, NMR spectrum      
  Ute Becker             : All parallelization in ORCA, NUMFREQ, NUMCALC 
  Giovanni Bistoni       : ED, misc. LED, open-shell LED, HFLD           
  Martin Brehm           : Molecular dynamics                            
  Dmytro Bykov           : pre 5.0 version of the SCF Hessian            
  Marcos Casanova-Páez   : Triplet and SCS-CIS(D). UHF-(DLPNO)-IP/EA/STEOM-CCSD. UHF-CVS-IP/STEOM-CCSD   
  Vijay G. Chilkuri      : MRCI spin determinant printing, contributions to CSF-ICE 
  Pauline Colinet        : FMM embedding                                 
  Dipayan Datta          : RHF DLPNO-CCSD density                        
  Achintya Kumar Dutta   : EOM-CC, STEOM-CC                              
  Nicolas Foglia         : Exact transition moments, OPA infrastructure, MCD improvements    
  Dmitry Ganyushin       : Spin-Orbit,Spin-Spin,Magnetic field MRCI      
  Miquel Garcia-Rates    : C-PCM and meta-GGA Hessian, CCSD/C-PCM, Gaussian charge scheme 
  Tiago L. C. Gouveia    : GS-ROHF, GS-ROCIS                             
  Yang Guo               : DLPNO-NEVPT2, F12-NEVPT2, CIM, IAO-localization        
  Andreas Hansen         : Spin unrestricted coupled pair/coupled cluster methods 
  Ingolf Harden          : AUTO-CI MPn and infrastructure                
  Benjamin Helmich-Paris : MC-RPA, TRAH-(SCF,CASSCF), AVAS, COSX integrals, SCF dyn. polar. 
  Lee Huntington         : MR-EOM, pCC                                   
  Robert Izsak           : Overlap fitted RIJCOSX, COSX-SCS-MP3, EOM     
  Riya Kayal             : Wick's Theorem for AUTO-CI, AUTO-CI UHF-CCSDT 
  Emily Kempfer          : AUTO-CI, RHF CISDT and CCSDT                  
  Christian Kollmar      : KDIIS, OOCD, Brueckner-CCSD(T), CCSD density, CASPT2, CASPT2-K, improved NEVPT2 
  Axel Koslowski         : Symmetry handling                             
  Simone Kossmann        : meta-GGA functionals, TD-DFT gradient, OOMP2, (MP2 Hessian; deprecated post 5.0) 
  Lucas Lang             : DCDCAS                                        
  Marvin Lechner         : AUTO-CI (C++ implementation), FIC-MRCC        
  Spencer Leger          : CASSCF response                               
  Dagmar Lenk            : GEPOL surface, SMD, ORCA-2-JSON               
  Dimitrios Liakos       : Extrapolation schemes; Compound Job, initial MDCI parallelization 
  Dimitrios Manganas     : Further ROCIS development; embedding schemes. LFT, Crystal Embedding 
  Dimitrios Pantazis     : SARC Basis sets                               
  Anastasios Papadopoulos: AUTO-CI, single reference methods and gradients 
  Taras Petrenko         : pre 6.0 DFT Hessian and TD-DFT gradient, (ASA, deprecated), ECA, 1-Electron XAS/XES, NRVS 
  Peter Pinski           : DLPNO-MP2, DLPNO-MP2 Gradient                 
  Christoph Reimann      : Effective Core Potentials                     
  Marius Retegan         : Local ZFS, SOC                                
  Christoph Riplinger    : Optimizer, TS searches, QM/MM, DLPNO-CCSD(T), (RO)-DLPNO pert. Triples 
  Michael Roemelt        : Original ROCIS implementation                 
  Masaaki Saitow         : Open-shell DLPNO-CCSD energy and density      
  Barbara Sandhoefer     : DKH picture change effects                    
  Kantharuban Sivalingam : CASSCF convergence/infrastructure, NEVPT2 and variants, FIC-MRCI 
  Bernardo de Souza      : ESD, SOC TD-DFT                               
  Georgi L. Stoychev     : AutoAux, RI-MP2 NMR, DLPNO-MP2 response, X2C  
  Van Anh Tran           : RI-MP2 g-tensors                              
  Willem Van den Heuvel  : Paramagnetic NMR                              
  Zikuan Wang            : NOTCH, Electric field optimization            
  Frank Wennmohs         : Technical directorship and infrastructure     
  Hang Xu                : AUTO-CI-Response properties                   
                                                                         
[FACCTs GmbH]                                                            
  Markus Bursch, Miquel Garcia-Rates, Christoph Riplinger, Bernardo de Souza, Georgi L. Stoychev 
                                                                 
  APM, Basis sets (HGBS, AHGBS, def-TZVP (Ac-Lr), def2-XVPD (La-Lu)), CI-OPT, improved COSX, DLPNO-Multilevel,           
  DOCKER, DRACO, updates on ESD, GOAT, IRC, LR-CPCM, MBIS, meta-GGA TD-DFT gradient, ML-optimized integration grids, 
  MM, NACMEs, nearIR, NEB, NEB-TS, NL-DFT gradient (VV10), 2- and 3-layer-ONIOM, interface openCOSMO-RS, QMMM,   
  Crystal-QMMM, SF, symmetry and pop. for TD-DFT, r2SCAN hybrids, SOLVATOR                                   
                                                                         
[Other institutions]                                                     
  V. Asgeirsson          : NEB                                           
  Christoph Bannwarth    : sTDA-DFT, sTD-DFT, PBEh-3c, B97-3c, D3        
  Sebastian Ehlert       : rSCAN, r2SCAN, r2SCAN-3c, D4, dhf basis sets  
  Marvin Friede          : D4 for Fr, Ra, Ac-Lr                          
  Lars Goerigk           : TD-DFT with DH, B97 family of functionals     
  Stefan Grimme          : VdW corrections, initial TS optimization, DFT functionals, gCP, sTDA/sTD-DF 
  Waldemar Hujo          : DFT-NL                                        
  H. Jonsson             : NEB                                           
  Holger Kruse           : gCP                                           
  Marcel Mueller         : wB97X-3c, vDZP basis set                      
  Hagen Neugebauer       : wr2SCAN                                       
  Tobias Risthaus        : range-separated hybrid DFT                    
  Lukas Wittmann         : regularized MP2, r2SCAN double-hybrids, wr2SCAN        
                                                                         
We gratefully acknowledge several colleagues who have allowed us to      
interface, adapt or use parts of their codes:                            
  Ed Valeev, F. Pavosevic, A. Kumar             : LibInt (2-el integral package), F12 methods 
  Garnet Chan, S. Sharma, J. Yang, R. Olivares  : DMRG                   
  Ulf Ekstrom                                   : XCFun DFT Library      
  Mihaly Kallay                                 : mrcc  (arbitrary order and MRCC methods)
  Frank Weinhold                                : gennbo (NPA and NBO analysis)           
  Simon Mueller                                 : openCOSMO-RS                            
  Christopher J. Cramer and Donald G. Truhlar   : smd solvation model                     
  S Lehtola, MJT Oliveira, MAL Marques          : LibXC Library                           
  Liviu Ungur et al                             : ANISO software                          


 Your calculation uses the libint2 library for the computation of 2-el integrals
 For citations please refer to: http://libint.valeyev.net

 Your ORCA version has been built with support for libXC version: 6.2.2
 For citations please refer to: https://libxc.gitlab.io

 This ORCA versions uses:
   CBLAS   interface :  Fast vector & matrix operations
   LAPACKE interface :  Fast linear algebra routines
   SCALAPACK package :  Parallel linear algebra routines
   Shared memory     :  Shared parallel matrices
   BLAS/LAPACK       :  OpenBLAS 0.3.27  USE64BITINT DYNAMIC_ARCH NO_AFFINITY SkylakeX SINGLE_THREADED
        Core in use  :  SkylakeX
   Copyright (c) 2011-2014, The OpenBLAS Project


NOTE: MaxCore=1400 MB was set to SCF,MP2,MDCI,CIPSI,MRCI and CIS
      => If you want to overwrite this, your respective input block should be placed after the MaxCore statement
NOTE: MaxCore=1400 MB was set to SCF,MP2,MDCI,CIPSI,MRCI and CIS
      => If you want to overwrite this, your respective input block should be placed after the MaxCore statement
================================================================================

cite the ECPs for Ru [Def2-ECP] as follows:
Ce-Yb(ecp-28): M. Dolg, H. Stoll, H.Preuss, J. Chem. Phys., 1989, 90, 1730-1734.
Y-Cd(ecp-28), Hf-Hg(ecp-46): D. Andrae,U. Haeussermann, M. Dolg, H. Stoll, H. Preuss, Theor. Chim. Acta, 1990, 77, 123-141.
In-Sb(ecp-28), Tl-Bi(ecp-46): B. Metz, H. Stoll, M. Dolg, J. Chem. Phys., 2000, 113, 2563-2569.
Te-Xe(ecp-28), Po-Rn(ecp-46): K. A. Peterson, D. Figgen, E. Goll, H. Stoll, M. Dolg, J. Chem. Phys., 2003, 119, 11113-11123.
Rb(ecp-28), Cs(ecp-46): T. Leininger, A. Nicklass, W. Kuechle, H. Stoll, M. Dolg, A. Bergner, Chem. Phys. Lett., 1996, 255, 274-280.
Sr(ecp-28), Ba(ecp-46): M. Kaupp, P. V. Schleyer, H. Stoll and H. Preuss, J. Chem. Phys., 1991, 94, 1360-1366.
La(ecp-46): M. Dolg, H. Stoll, A. Savin, H. Preuss, Theor. Chim. Acta, 1989, 75, 173-194.
Lu(ecp-28): X. Cao, M. Dolg, J. Chem. Phys., 2001, 115, 7348-7355.

ECP parameters for Ru [Def2-ECP] have been obtained from:
TURBOMOLE (7.0.2)

----- Orbital basis set information -----
Your calculation utilizes the basis: def2-SVP
   F. Weigend and R. Ahlrichs, Phys. Chem. Chem. Phys. 7, 3297 (2005).



################################################################################


                                COMPOUND JOB MainJOB 
Basename: cli48_Compound_0

################################################################################

================================================================================
                                       INPUT FILE
================================================================================
NAME = cli48_Compound_0.inp
|  1> %maxcore 1400
|  2>  %pal nprocs 20 end
|  3>  * xyz 0 1
|  4>      Ru -1.05088700 0.04829600 -0.00621900
|  5>       O 0.97443900 -0.80964200 -0.60891800
|  6>       C 0.05979700 1.46451400 0.42355500
|  7>       H -0.28258800 2.40550300 0.86024300
|  8>       C 1.34238600 -2.18505000 -0.99621700
|  9>       H 2.04814900 -2.08716800 -1.83104300
| 10>       C 1.97200000 -2.89879100 0.18635100
| 11>       H 2.83373100 -2.35504400 0.58218100
| 12>       H 2.30949300 -3.89042900 -0.13149500
| 13>       H 1.23542900 -3.01121800 0.98629300
| 14>       C 0.07762000 -2.85395200 -1.49023400
| 15>       H -0.64856800 -2.95767200 -0.67697000
| 16>       H 0.33029800 -3.85640500 -1.84902600
| 17>       H -0.36900500 -2.29125200 -2.31315700
| 18>       C 1.94036700 0.13344400 -0.41589800
| 19>       C 3.28382100 -0.01661300 -0.73510000
| 20>       H 3.66651800 -0.93588800 -1.16028400
| 21>       C 4.15431900 1.04548900 -0.49931800
| 22>       H 5.20378200 0.92741400 -0.75165300
| 23>       C 3.70369100 2.24514800 0.05070000
| 24>       H 4.39897000 3.05901100 0.22749200
| 25>       C 2.36400100 2.39040900 0.36549000
| 26>       H 1.99104500 3.31833800 0.78997700
| 27>       C 1.45581800 1.34125800 0.13814400
| 28>      Cl -1.48981800 0.35587600 -2.26156700
| 29>      Cl -1.02078000 -1.35989100 1.84207200
| 30>       C -2.54566300 0.91986300 0.52601400
| 31>       O -3.49646400 1.48215300 0.85218500
| 32>  *
| 33> 
| 34>                          ****END OF INPUT****
================================================================================
NOTE: MaxCore=1400 MB was set to SCF,MP2,MDCI,CIPSI,MRCI and CIS
      => If you want to overwrite this, your respective input block should be placed after the MaxCore statement
================================================================================

cite the ECPs for Ru [Def2-ECP] as follows:
Ce-Yb(ecp-28): M. Dolg, H. Stoll, H.Preuss, J. Chem. Phys., 1989, 90, 1730-1734.
Y-Cd(ecp-28), Hf-Hg(ecp-46): D. Andrae,U. Haeussermann, M. Dolg, H. Stoll, H. Preuss, Theor. Chim. Acta, 1990, 77, 123-141.
In-Sb(ecp-28), Tl-Bi(ecp-46): B. Metz, H. Stoll, M. Dolg, J. Chem. Phys., 2000, 113, 2563-2569.
Te-Xe(ecp-28), Po-Rn(ecp-46): K. A. Peterson, D. Figgen, E. Goll, H. Stoll, M. Dolg, J. Chem. Phys., 2003, 119, 11113-11123.
Rb(ecp-28), Cs(ecp-46): T. Leininger, A. Nicklass, W. Kuechle, H. Stoll, M. Dolg, A. Bergner, Chem. Phys. Lett., 1996, 255, 274-280.
Sr(ecp-28), Ba(ecp-46): M. Kaupp, P. V. Schleyer, H. Stoll and H. Preuss, J. Chem. Phys., 1991, 94, 1360-1366.
La(ecp-46): M. Dolg, H. Stoll, A. Savin, H. Preuss, Theor. Chim. Acta, 1989, 75, 173-194.
Lu(ecp-28): X. Cao, M. Dolg, J. Chem. Phys., 2001, 115, 7348-7355.

ECP parameters for Ru [Def2-ECP] have been obtained from:
TURBOMOLE (7.0.2)

----- Orbital basis set information -----
Your calculation utilizes the basis: def2-SVP
   F. Weigend and R. Ahlrichs, Phys. Chem. Chem. Phys. 7, 3297 (2005).



################################################################################


                                COMPOUND JOB  1 
Basename: cli48_Compound_1
NOTE: please remember that MaxCore and PAL settings will be ignored.

################################################################################

================================================================================
                                       INPUT FILE
================================================================================
NAME = cli48_Compound_1.inp
|  1>     ! RKS r2scan-3c Opt MOREAD
|  2>     %geom
|  3>       maxiter 5
|  4>     end
|  5>     %scf
|  6>       maxiter 500
|  7>     end
|  8>     %moinp "restart.gbw"
|  9> 
| 10>                          ****END OF INPUT****
================================================================================
Your calculation utilizes the geometrical counterpoise correction gCP
Please cite in your paper:
H.Kruse, S. Grimme J.Chem.Phys., 136, (2012), 154101 
   

Your calculation utilizes the atom-pairwise dispersion correction
based on EEQ partial charges (D4)


================================================================================

cite the ECPs for Ru [Def2-ECP] as follows:
Ce-Yb(ecp-28): M. Dolg, H. Stoll, H.Preuss, J. Chem. Phys., 1989, 90, 1730-1734.
Y-Cd(ecp-28), Hf-Hg(ecp-46): D. Andrae,U. Haeussermann, M. Dolg, H. Stoll, H. Preuss, Theor. Chim. Acta, 1990, 77, 123-141.
In-Sb(ecp-28), Tl-Bi(ecp-46): B. Metz, H. Stoll, M. Dolg, J. Chem. Phys., 2000, 113, 2563-2569.
Te-Xe(ecp-28), Po-Rn(ecp-46): K. A. Peterson, D. Figgen, E. Goll, H. Stoll, M. Dolg, J. Chem. Phys., 2003, 119, 11113-11123.
Rb(ecp-28), Cs(ecp-46): T. Leininger, A. Nicklass, W. Kuechle, H. Stoll, M. Dolg, A. Bergner, Chem. Phys. Lett., 1996, 255, 274-280.
Sr(ecp-28), Ba(ecp-46): M. Kaupp, P. V. Schleyer, H. Stoll and H. Preuss, J. Chem. Phys., 1991, 94, 1360-1366.
La(ecp-46): M. Dolg, H. Stoll, A. Savin, H. Preuss, Theor. Chim. Acta, 1989, 75, 173-194.
Lu(ecp-28): X. Cao, M. Dolg, J. Chem. Phys., 2001, 115, 7348-7355.
Fr-Lr(ecp-60) K. Eichkorn, F. Weigend, O. Treutler, R. Ahlrichs, Theor. Chem. Acc. 1997, 97, 119.

ECP parameters for Ru [Def2-ECP] have been obtained from:
TURBOMOLE (7.0.2)

----- Orbital basis set information -----
Your calculation utilizes the basis: def2-mTZVPP
   Stefan Grimme, Andreas Hansen, Sebastian Ehlert, and Jan-Michael Mewes 
   J. Chem. Phys. 154, 064103 (2021). DOI: 10.1063/5.0040021

----- AuxJ basis set information -----
Your calculation utilizes the basis: def2-mTZVPP/J
   Stefan Grimme, Andreas Hansen, Sebastian Ehlert, and Jan-Michael Mewes 
   J. Chem. Phys. 154, 000000 (2021). DOI: 10.1063/5.0040021

================================================================================
                                        WARNINGS
                       Please study these warnings very carefully!
================================================================================



WARNING: SCAN, rSCAN, or r2SCAN functional requested.
  ===> : libXC variant has now been activated.




                       *****************************
                       * Geometry Optimization Run *
                       *****************************

Geometry optimization settings:
Update method            Update   .... BFGS
Choice of coordinates    CoordSys .... (2022) Redundant Internals
Initial Hessian          InHess   .... Almloef's Model
Max. no of cycles        MaxIter  .... 5

Convergence Tolerances:
Energy Change            TolE     ....  5.0000e-06 Eh
Max. Gradient            TolMAXG  ....  3.0000e-04 Eh/bohr
RMS Gradient             TolRMSG  ....  1.0000e-04 Eh/bohr
Max. Displacement        TolMAXD  ....  4.0000e-03 bohr
RMS Displacement         TolRMSD  ....  2.0000e-03 bohr
Strict Convergence                .... False

------------------------------------------------------------------------------
                        ORCA OPTIMIZATION COORDINATE SETUP
------------------------------------------------------------------------------

The optimization will be done in redundant internal coordinates (2022)
Making redundant internal coordinates   ...  (2022 redundants) done
Evaluating the initial hessian          ...  (Almloef) done
Evaluating the coordinates              ...  done
Calculating the B-matrix                .... done
Calculating the G-matrix                .... done
Diagonalizing the G-matrix              .... done
Small eigenvalue found = 1.395e-02
Small eigenvalue found = 2.963e-02
The first mode is                       ....   68
The number of degrees of freedom        ....   78

    -----------------------------------------------------------------
                    Redundant Internal Coordinates


    -----------------------------------------------------------------
         Definition                    Initial Value    Approx d2E/dq
    -----------------------------------------------------------------
      1. B(O   1,Ru  0)                  2.2806         0.214815   
      2. B(C   2,Ru  0)                  1.8504         1.164976   
      3. B(H   3,C   2)                  1.0924         0.356911   
      4. B(C   4,O   1)                  1.4755         0.408741   
      5. B(H   5,C   4)                  1.0976         0.350249   
      6. B(C   6,C   4)                  1.5180         0.390420   
      7. B(H   7,C   6)                  1.0931         0.355990   
      8. B(H   8,C   6)                  1.0947         0.353992   
      9. B(H   9,C   6)                  1.0932         0.355893   
     10. B(C  10,C   4)                  1.5136         0.396711   
     11. B(H  11,C  10)                  1.0952         0.353261   
     12. B(H  12,C  10)                  1.0943         0.354458   
     13. B(H  13,C  10)                  1.0924         0.356957   
     14. B(C  14,O   1)                  1.3637         0.616355   
     15. B(C  15,C  14)                  1.3890         0.627134   
     16. B(H  16,C  15)                  1.0827         0.369846   
     17. B(C  17,C  15)                  1.3933         0.617157   
     18. B(H  18,C  17)                  1.0858         0.365683   
     19. B(C  19,C  17)                  1.3945         0.614442   
     20. B(H  20,C  19)                  1.0849         0.366890   
     21. B(C  21,C  19)                  1.3838         0.639139   
     22. B(H  22,C  21)                  1.0864         0.364849   
     23. B(C  23,C  21)                  1.4061         0.588850   
     24. B(C  23,C  14)                  1.4144         0.571201   
     25. B(C  23,C   2)                  1.4302         0.538979   
     26. B(Cl 24,Ru  0)                  2.3182         0.468858   
     27. B(Cl 25,Ru  0)                  2.3238         0.459230   
     28. B(C  26,Ru  0)                  1.8103         1.349804   
     29. B(O  27,C  26)                  1.1518         1.342617   
     30. A(C   2,Ru  0,Cl 25)          105.7406         0.605558   
     31. A(O   1,Ru  0,Cl 25)           88.3224         0.439260   
     32. A(O   1,Ru  0,C  26)          172.7814         0.518296   
     33. A(O   1,Ru  0,C   2)           79.4117         0.504224   
     34. A(Cl 24,Ru  0,C  26)           93.7735         0.625579   
     35. A(C   2,Ru  0,C  26)           93.3741         0.722119   
     36. A(Cl 24,Ru  0,Cl 25)          148.9456         0.526791   
     37. A(C   2,Ru  0,Cl 24)          103.7726         0.607989   
     38. A(O   1,Ru  0,Cl 24)           87.7622         0.440909   
     39. A(Cl 25,Ru  0,C  26)           93.9339         0.623065   
     40. A(Ru  0,O   1,C  14)          109.3575         0.397717   
     41. A(Ru  0,O   1,C   4)          129.9026         0.370310   
     42. A(C   4,O   1,C  14)          120.3424         0.397455   
     43. A(H   3,C   2,C  23)          117.3826         0.344161   
     44. A(Ru  0,C   2,C  23)          118.2669         0.534339   
     45. A(Ru  0,C   2,H   3)          124.3315         0.439860   
     46. A(C   6,C   4,C  10)          113.1441         0.369898   
     47. A(H   5,C   4,C  10)          109.1757         0.326048   
     48. A(O   1,C   4,C   6)          109.7084         0.369477   
     49. A(O   1,C   4,C  10)          106.8122         0.370494   
     50. A(O   1,C   4,H   5)          106.0737         0.325693   
     51. A(H   5,C   4,C   6)          111.5785         0.325192   
     52. A(C   4,C   6,H   7)          112.0355         0.326063   
     53. A(H   8,C   6,H   9)          109.0891         0.289525   
     54. A(H   7,C   6,H   9)          108.5019         0.289781   
     55. A(C   4,C   6,H   9)          109.8128         0.326048   
     56. A(C   4,C   6,H   8)          109.1239         0.325761   
     57. A(H   7,C   6,H   8)          108.2225         0.289538   
     58. A(H  12,C  10,H  13)          108.6198         0.289721   
     59. A(H  11,C  10,H  13)          109.6991         0.289567   
     60. A(C   4,C  10,H  13)          111.0916         0.327068   
     61. A(H  11,C  10,H  12)          108.0480         0.289248   
     62. A(C   4,C  10,H  12)          108.5962         0.326690   
     63. A(C   4,C  10,H  11)          110.7033         0.326508   
     64. A(O   1,C  14,C  15)          125.2998         0.431656   
     65. A(C  15,C  14,C  23)          120.9054         0.428601   
     66. A(O   1,C  14,C  23)          113.7870         0.424487   
     67. A(H  16,C  15,C  17)          119.5261         0.354233   
     68. A(C  14,C  15,C  17)          118.8838         0.434601   
     69. A(C  14,C  15,H  16)          121.5901         0.355197   
     70. A(H  18,C  17,C  19)          119.8362         0.353290   
     71. A(C  15,C  17,C  19)          121.3725         0.433005   
     72. A(C  15,C  17,H  18)          118.7913         0.353554   
     73. A(C  17,C  19,H  20)          120.1663         0.353487   
     74. A(H  20,C  19,C  21)          120.3054         0.355857   
     75. A(C  17,C  19,C  21)          119.5281         0.435741   
     76. A(H  22,C  21,C  23)          118.6021         0.350622   
     77. A(C  19,C  21,C  23)          120.6755         0.432419   
     78. A(C  19,C  21,H  22)          120.7220         0.355520   
     79. A(C  14,C  23,C  21)          118.6339         0.423793   
     80. A(C   2,C  23,C  21)          122.2670         0.419422   
     81. A(C   2,C  23,C  14)          119.0878         0.417154   
     82. L(Ru  0,C  26,O  27,Cl 24, 2) 180.4248         0.650426   
     83. L(Ru  0,C  26,O  27,Cl 24, 1) 179.3463         0.650426   
     84. D(C  14,O   1,Ru  0,C   2)     -2.6452         0.001733   
     85. D(C   4,O   1,Ru  0,C  26)    171.9931         0.001733   
     86. D(C   4,O   1,Ru  0,C   2)    169.9876         0.001733   
     87. D(C  14,O   1,Ru  0,Cl 25)   -108.9995         0.001733   
     88. D(C  14,O   1,Ru  0,Cl 24)    101.8135         0.001733   
     89. D(C   4,O   1,Ru  0,Cl 25)     63.6334         0.001733   
     90. D(C   4,O   1,Ru  0,Cl 24)    -85.5537         0.001733   
     91. D(C  23,C   2,Ru  0,Cl 25)     87.6594         0.007558   
     92. D(C  23,C   2,Ru  0,O   1)      2.4567         0.007558   
     93. D(H   3,C   2,Ru  0,C  26)      1.0746         0.007558   
     94. D(C  23,C   2,Ru  0,Cl 24)    -82.5684         0.007558   
     95. D(H   3,C   2,Ru  0,O   1)   -179.1778         0.007558   
     96. D(H   3,C   2,Ru  0,Cl 25)    -93.9751         0.007558   
     97. D(H   3,C   2,Ru  0,Cl 24)     95.7971         0.007558   
     98. D(H   5,C   4,O   1,Ru  0)    139.5446         0.014254   
     99. D(C  10,C   4,O   1,Ru  0)     23.1754         0.014254   
    100. D(C   6,C   4,O   1,C  14)     72.1350         0.014254   
    101. D(C   6,C   4,O   1,Ru  0)    -99.8068         0.014254   
    102. D(H   5,C   4,O   1,C  14)    -48.5136         0.014254   
    103. D(H   8,C   6,C   4,C  10)     65.0666         0.012117   
    104. D(H   8,C   6,C   4,H   5)    -58.5195         0.012117   
    105. D(H   8,C   6,C   4,O   1)   -175.7739         0.012117   
    106. D(H   7,C   6,C   4,C  10)   -175.1052         0.012117   
    107. D(H   7,C   6,C   4,H   5)     61.3087         0.012117   
    108. D(H   7,C   6,C   4,O   1)    -55.9456         0.012117   
    109. D(H  12,C  10,C   4,H   5)     61.9531         0.012494   
    110. D(H  11,C  10,C   4,C   6)     55.5196         0.012494   
    111. D(H  12,C  10,C   4,O   1)    176.2399         0.012494   
    112. D(H  11,C  10,C   4,H   5)   -179.5829         0.012494   
    113. D(H  11,C  10,C   4,O   1)    -65.2961         0.012494   
    114. D(H  12,C  10,C   4,C   6)    -62.9444         0.012494   
    115. D(C  23,C  14,O   1,C   4)   -171.2384         0.030734   
    116. D(C  23,C  14,O   1,Ru  0)      2.2168         0.030734   
    117. D(C  15,C  14,O   1,C   4)      9.7686         0.030734   
    118. D(C  15,C  14,O   1,Ru  0)   -176.7762         0.030734   
    119. D(C  17,C  15,C  14,C  23)      0.0670         0.027254   
    120. D(C  17,C  15,C  14,O   1)    178.9930         0.027254   
    121. D(H  16,C  15,C  14,C  23)   -179.9551         0.027254   
    122. D(H  16,C  15,C  14,O   1)     -1.0290         0.027254   
    123. D(C  19,C  17,C  15,H  16)   -179.7945         0.026341   
    124. D(C  19,C  17,C  15,C  14)      0.1840         0.026341   
    125. D(H  18,C  17,C  15,H  16)      0.1687         0.026341   
    126. D(H  18,C  17,C  15,C  14)   -179.8529         0.026341   
    127. D(C  21,C  19,C  17,H  18)    179.7717         0.026096   
    128. D(C  21,C  19,C  17,C  15)     -0.2655         0.026096   
    129. D(H  20,C  19,C  17,H  18)     -0.0584         0.026096   
    130. D(H  20,C  19,C  17,C  15)    179.9044         0.026096   
    131. D(C  23,C  21,C  19,H  20)    179.9240         0.028377   
    132. D(C  23,C  21,C  19,C  17)      0.0941         0.028377   
    133. D(H  22,C  21,C  19,H  20)      0.1487         0.028377   
    134. D(H  22,C  21,C  19,C  17)   -179.6812         0.028377   
    135. D(C  14,C  23,C  21,C  19)      0.1482         0.023857   
    136. D(C   2,C  23,C  21,H  22)      1.1650         0.023857   
    137. D(C   2,C  23,C  21,C  19)   -178.6150         0.023857   
    138. D(C  21,C  23,C  14,C  15)     -0.2303         0.022385   
    139. D(C  21,C  23,C  14,O   1)   -179.2724         0.022385   
    140. D(C   2,C  23,C  14,C  15)    178.5730         0.022385   
    141. D(C   2,C  23,C  14,O   1)     -0.4692         0.022385   
    142. D(C  21,C  23,C   2,H   3)     -1.8406         0.019847   
    143. D(C  21,C  23,C   2,Ru  0)    176.6394         0.019847   
    144. D(C  14,C  23,C   2,H   3)    179.4016         0.019847   
    145. D(C  14,C  23,C  21,H  22)    179.9282         0.023857   
    146. D(C  14,C  23,C   2,Ru  0)     -2.1184         0.019847   
    -----------------------------------------------------------------

Number of atoms                         .... 28
Number of degrees of freedom            .... 146


         *************************************************************
         *                GEOMETRY OPTIMIZATION CYCLE   1            *
         *************************************************************
---------------------------------
CARTESIAN COORDINATES (ANGSTROEM)
---------------------------------
  Ru    -1.050887    0.048296   -0.006219
  O      0.974439   -0.809642   -0.608918
  C      0.059797    1.464514    0.423555
  H     -0.282588    2.405503    0.860243
  C      1.342386   -2.185050   -0.996217
  H      2.048149   -2.087168   -1.831043
  C      1.972000   -2.898791    0.186351
  H      2.833731   -2.355044    0.582181
  H      2.309493   -3.890429   -0.131495
  H      1.235429   -3.011218    0.986293
  C      0.077620   -2.853952   -1.490234
  H     -0.648568   -2.957672   -0.676970
  H      0.330298   -3.856405   -1.849026
  H     -0.369005   -2.291252   -2.313157
  C      1.940367    0.133444   -0.415898
  C      3.283821   -0.016613   -0.735100
  H      3.666518   -0.935888   -1.160284
  C      4.154319    1.045489   -0.499318
  H      5.203782    0.927414   -0.751653
  C      3.703691    2.245148    0.050700
  H      4.398970    3.059011    0.227492
  C      2.364001    2.390409    0.365490
  H      1.991045    3.318338    0.789977
  C      1.455818    1.341258    0.138144
  Cl    -1.489818    0.355876   -2.261567
  Cl    -1.020780   -1.359891    1.842072
  C     -2.545663    0.919863    0.526014
  O     -3.496464    1.482153    0.852185

----------------------------
CARTESIAN COORDINATES (A.U.)
----------------------------
  NO LB      ZA    FRAG     MASS         X           Y           Z
   0 Ru   16.0000*   0   101.070   -1.985889    0.091266   -0.011752
   1 O     8.0000    0    15.999    1.841423   -1.530002   -1.150688
   2 C     6.0000    0    12.011    0.113000    2.767530    0.800403
   3 H     1.0000    0     1.008   -0.534014    4.545742    1.625624
   4 C     6.0000    0    12.011    2.536742   -4.129146   -1.882577
   5 H     1.0000    0     1.008    3.870441   -3.944176   -3.460170
   6 C     6.0000    0    12.011    3.726540   -5.477921    0.352152
   7 H     1.0000    0     1.008    5.354976   -4.450388    1.100163
   8 H     1.0000    0     1.008    4.364309   -7.351845   -0.248490
   9 H     1.0000    0     1.008    2.334622   -5.690377    1.863824
  10 C     6.0000    0    12.011    0.146681   -5.393188   -2.816134
  11 H     1.0000    0     1.008   -1.225616   -5.589190   -1.279288
  12 H     1.0000    0     1.008    0.624173   -7.287549   -3.494153
  13 H     1.0000    0     1.008   -0.697318   -4.329839   -4.371233
  14 C     6.0000    0    12.011    3.666762    0.252173   -0.785933
  15 C     6.0000    0    12.011    6.205522   -0.031394   -1.389138
  16 H     1.0000    0     1.008    6.928715   -1.768572   -2.192619
  17 C     6.0000    0    12.011    7.850525    1.975688   -0.943574
  18 H     1.0000    0     1.008    9.833723    1.752558   -1.420418
  19 C     6.0000    0    12.011    6.998962    4.242715    0.095809
  20 H     1.0000    0     1.008    8.312849    5.780693    0.429898
  21 C     6.0000    0    12.011    4.467314    4.517218    0.690676
  22 H     1.0000    0     1.008    3.762530    6.270750    1.492840
  23 C     6.0000    0    12.011    2.751097    2.534610    0.261054
  24 Cl   17.0000    0    35.453   -2.815348    0.672508   -4.273742
  25 Cl   17.0000    0    35.453   -1.928995   -2.569822    3.481012
  26 C     6.0000    0    12.011   -4.810606    1.738289    0.994022
  27 O     8.0000    0    15.999   -6.607359    2.800863    1.610396
* core charge reduced due to ECP

--------------------------------
INTERNAL COORDINATES (ANGSTROEM)
--------------------------------
 Ru     0   0   0     0.000000000000     0.00000000     0.00000000
 O      1   0   0     2.280624717642     0.00000000     0.00000000
 C      1   2   0     1.850404837449    79.41165281     0.00000000
 H      3   1   2     1.092421253771   124.33148474   180.82222264
 C      2   1   3     1.475510988327   129.90262842   169.98761630
 H      5   2   1     1.097550339788   106.07372486   139.54462608
 C      5   2   1     1.517994426439   109.70843448   260.19318512
 H      7   5   2     1.093125109615   112.03549042   304.05436140
 H      7   5   2     1.094656808232   109.12394271   184.22613789
 H      7   5   2     1.093198916819   109.81279960    64.69841600
 C      5   2   1     1.513643193308   106.81221488    23.17544343
 H     11   5   2     1.095219239897   110.70331672   294.70388481
 H     11   5   2     1.094298811183   108.59622092   176.23986677
 H     11   5   2     1.092386124296   111.09162004    56.84416855
 C      2   1   3     1.363702616035   109.35751497   357.35475259
 C     15   2   1     1.388983682470   125.29983758   183.22379931
 H     16  15   2     1.082730323437   121.59013265   358.97099498
 C     16  15   2     1.393348692156   118.88380472   178.99304128
 H     18  16  15     1.085811791343   118.79134008   180.14710297
 C     18  16  15     1.394549070843   121.37249014     0.18395506
 H     20  18  16     1.084915333966   120.16634358   179.90440024
 C     20  18  16     1.383821808732   119.52807901   359.73448281
 H     22  20  18     1.086433440274   120.72198135   180.31883308
 C     22  20  18     1.406129576535   120.67553768     0.09414179
 Cl     1   2   3     2.318158855701    87.76223099   104.45870038
 Cl     1   2   3     2.323806506381    88.32241687   253.64573463
 C      1   2   3     1.810319389487   172.78142271     2.00552175
 O     27   1   3     1.151772593415   179.26971813    77.45357874

---------------------------
INTERNAL COORDINATES (A.U.)
---------------------------
 Ru     0   0   0     0.000000000000     0.00000000     0.00000000
 O      1   0   0     4.309756130595     0.00000000     0.00000000
 C      1   2   0     3.496758379662    79.41165281     0.00000000
 H      3   1   2     2.064376992502   124.33148474   180.82222264
 C      2   1   3     2.788311675530   129.90262842   169.98761630
 H      5   2   1     2.074069560392   106.07372486   139.54462608
 C      5   2   1     2.868593738789   109.70843448   260.19318512
 H      7   5   2     2.065707087284   112.03549042   304.05436140
 H      7   5   2     2.068601578191   109.12394271   184.22613789
 H      7   5   2     2.065846562687   109.81279960    64.69841600
 C      5   2   1     2.860371099827   106.81221488    23.17544343
 H     11   5   2     2.069664420006   110.70331672   294.70388481
 H     11   5   2     2.067925061812   108.59622092   176.23986677
 H     11   5   2     2.064310607415   111.09162004    56.84416855
 C      2   1   3     2.577024472418   109.35751497   357.35475259
 C     15   2   1     2.624798764354   125.29983758   183.22379931
 H     16  15   2     2.046063788188   121.59013265   358.97099498
 C     16  15   2     2.633047437232   118.88380472   178.99304128
 H     18  16  15     2.051886918620   118.79134008   180.14710297
 C     18  16  15     2.635315824208   121.37249014     0.18395506
 H     20  18  16     2.050192859687   120.16634358   179.90440024
 C     20  18  16     2.615044236650   119.52807901   359.73448281
 H     22  20  18     2.053061664852   120.72198135   180.31883308
 C     22  20  18     2.657199808457   120.67553768     0.09414179
 Cl     1   2   3     4.380685372199    87.76223099   104.45870038
 Cl     1   2   3     4.391357885285    88.32241687   253.64573463
 C      1   2   3     3.421007861059   172.78142271     2.00552175
 O     27   1   3     2.176534770111   179.26971813    77.45357874

---------------------
BASIS SET INFORMATION
---------------------
There are 5 groups of distinct atoms

 Group   1 Type Ru  : 7s7p5d contracted to 6s4p3d pattern {211111/4111/311}
 Group   2 Type O   : 11s6p2d contracted to 5s3p2d pattern {62111/411/11}
 Group   3 Type C   : 11s6p1d contracted to 5s3p1d pattern {62111/411/1}
 Group   4 Type H   : 4s1p contracted to 2s1p pattern {31/1}
 Group   5 Type Cl  : 14s9p2d contracted to 5s4p2d pattern {73211/6111/11}

Atom   0Ru   basis set group =>   1
Atom   1O    basis set group =>   2
Atom   2C    basis set group =>   3
Atom   3H    basis set group =>   4
Atom   4C    basis set group =>   3
Atom   5H    basis set group =>   4
Atom   6C    basis set group =>   3
Atom   7H    basis set group =>   4
Atom   8H    basis set group =>   4
Atom   9H    basis set group =>   4
Atom  10C    basis set group =>   3
Atom  11H    basis set group =>   4
Atom  12H    basis set group =>   4
Atom  13H    basis set group =>   4
Atom  14C    basis set group =>   3
Atom  15C    basis set group =>   3
Atom  16H    basis set group =>   4
Atom  17C    basis set group =>   3
Atom  18H    basis set group =>   4
Atom  19C    basis set group =>   3
Atom  20H    basis set group =>   4
Atom  21C    basis set group =>   3
Atom  22H    basis set group =>   4
Atom  23C    basis set group =>   3
Atom  24Cl   basis set group =>   5
Atom  25Cl   basis set group =>   5
Atom  26C    basis set group =>   3
Atom  27O    basis set group =>   2
---------------------------------
AUXILIARY/J BASIS SET INFORMATION
---------------------------------
There are 5 groups of distinct atoms

 Group   1 Type Ru  : 11s5p5d3f3g contracted to 8s5p5d2f3g pattern {41111111/11111/11111/21/111}
 Group   2 Type O   : 8s3p3d contracted to 6s3p3d pattern {311111/111/111}
 Group   3 Type C   : 8s3p3d contracted to 6s3p3d pattern {311111/111/111}
 Group   4 Type H   : 5s2p1d contracted to 3s1p1d pattern {311/2/1}
 Group   5 Type Cl  : 14s5p5d2f contracted to 8s4p3d1f pattern {71111111/2111/311/2}

Atom   0Ru   basis set group =>   1
Atom   1O    basis set group =>   2
Atom   2C    basis set group =>   3
Atom   3H    basis set group =>   4
Atom   4C    basis set group =>   3
Atom   5H    basis set group =>   4
Atom   6C    basis set group =>   3
Atom   7H    basis set group =>   4
Atom   8H    basis set group =>   4
Atom   9H    basis set group =>   4
Atom  10C    basis set group =>   3
Atom  11H    basis set group =>   4
Atom  12H    basis set group =>   4
Atom  13H    basis set group =>   4
Atom  14C    basis set group =>   3
Atom  15C    basis set group =>   3
Atom  16H    basis set group =>   4
Atom  17C    basis set group =>   3
Atom  18H    basis set group =>   4
Atom  19C    basis set group =>   3
Atom  20H    basis set group =>   4
Atom  21C    basis set group =>   3
Atom  22H    basis set group =>   4
Atom  23C    basis set group =>   3
Atom  24Cl   basis set group =>   5
Atom  25Cl   basis set group =>   5
Atom  26C    basis set group =>   3
Atom  27O    basis set group =>   2
-------------------------
ECP PARAMETER INFORMATION
-------------------------

 Group 1, Type Ru ECP Def2-ECP (replacing 28 core electrons, lmax=3)

Atom   0Ru   ECP group =>   1



           ************************************************************
           *        Program running with 20 parallel MPI-processes    *
           *              working on a common directory               *
           ************************************************************
------------------------------------------------------------------------------
                             ORCA STARTUP CALCULATIONS
                           -- RI-GTO INTEGRALS CHOSEN --
------------------------------------------------------------------------------
------------------------------------------------------------------------------
                   ___                                                        
                  /   \      - P O W E R E D   B Y -                         
                 /     \                                                     
                 |  |  |   _    _      __       _____    __    __             
                 |  |  |  | |  | |    /  \     |  _  \  |  |  /  |          
                  \  \/   | |  | |   /    \    | | | |  |  | /  /          
                 / \  \   | |__| |  /  /\  \   | |_| |  |  |/  /          
                |  |  |   |  __  | /  /__\  \  |    /   |      \           
                |  |  |   | |  | | |   __   |  |    \   |  |\   \          
                \     /   | |  | | |  |  |  |  | |\  \  |  | \   \       
                 \___/    |_|  |_| |__|  |__|  |_| \__\ |__|  \__/        
                                                                              
                      - O R C A' S   B I G   F R I E N D -                    
                                      &                                       
                       - I N T E G R A L  F E E D E R -                       
                                                                              
 v1 FN, 2020, v2 2021, v3 2022-2024                                           
------------------------------------------------------------------------------


----------------------
SHARK INTEGRAL PACKAGE
----------------------

Number of atoms                             ...     28
Number of basis functions                   ...    404
Number of shells                            ...    190
Maximum angular momentum                    ...      2
Integral batch strategy                     ... SHARK/LIBINT Hybrid
RI-J (if used) integral strategy            ... SPLIT-RIJ (Revised 2003 algorithm where possible)
Printlevel                                  ...      1
Contraction scheme used                     ... SEGMENTED contraction
Prescreening option                         ... SCHWARTZ
   Thresh                                   ... 2.500e-11
   Tcut                                     ... 2.500e-12
   Tpresel                                  ... 2.500e-12 
Coulomb Range Separation                    ... NOT USED
Exchange Range Separation                   ... NOT USED
Multipole approximations                    ... NOT USED
Finite Nucleus Model                        ... NOT USED
CABS basis                                  ... NOT available
Auxiliary Coulomb fitting basis             ... AVAILABLE
   # of basis functions in Aux-J            ...    695
   # of shells in Aux-J                     ...    271
   Maximum angular momentum in Aux-J        ...      4
Auxiliary J/K fitting basis                 ... NOT available
Auxiliary Correlation fitting basis         ... NOT available
Auxiliary 'external' fitting basis          ... NOT available

Checking pre-screening integrals            ... done (  0.0 sec) Dimension = 190
Check shell pair data                       ... done (  0.0 sec)
Shell pair information
Shell pair cut-off parameter TPreSel        ...   2.5e-12
Total number of shell pairs                 ...     18145
Shell pairs after pre-screening             ...     14279
Total number of primitive shell pairs       ...     67207
Primitive shell pairs kept                  ...     33969
          la=0 lb=0:   4147 shell pairs
          la=1 lb=0:   5277 shell pairs
          la=1 lb=1:   1699 shell pairs
          la=2 lb=0:   1790 shell pairs
          la=2 lb=1:   1149 shell pairs
          la=2 lb=2:    217 shell pairs

Calculating one electron integrals          ... done (  0.0 sec)
Calculating ECP integrals                   ... done (  0.5 sec)
Calculating RI/J V-Matrix + Cholesky decomp.... done (  0.0 sec)
Calculating Nuclear repulsion               ... done (  0.0 sec) ENN=   1532.971268594301 Eh

Diagonalization of the overlap matrix:
Smallest eigenvalue                        ... 2.294e-05
Time for diagonalization                   ...    0.039 sec
Threshold for overlap eigenvalues          ... 1.000e-07
Number of eigenvalues below threshold      ... 0
Time for construction of square roots      ...    0.025 sec
Total time needed                          ...    0.077 sec

-------------------
DFT GRID GENERATION
-------------------

General Integration Accuracy     IntAcc      ... 4.388
Radial Grid Type                 RadialGrid  ... OptM3 with GC (2021)
Angular Grid (max. ang.)         AngularGrid ... 4 (Lebedev-302)
Angular grid pruning method      GridPruning ... 4 (adaptive)
Weight generation scheme         WeightScheme... mBecke (2022)
Basis function cutoff            BFCut       ... 1.0000e-11
Integration weight cutoff        WCut        ... 1.0000e-14
Partially contracted basis set               ... off
Rotationally invariant grid construction     ... off
Angular grids for H and He will be reduced by one unit
Diffuse basis detected: some atoms will have their outermost
                        angular grid increased by 1.

Total number of grid points                  ...   141356
Total number of batches                      ...     2224
Average number of points per batch           ...       63
Average number of grid points per atom       ...     5048
Initializing property integral containers    ... done (  0.1 sec)

SHARK setup successfully completed in   2.5 seconds

Maximum memory used throughout the entire STARTUP-calculation: 48.7 MB


           ************************************************************
           *        Program running with 20 parallel MPI-processes    *
           *              working on a common directory               *
           ************************************************************
-------------------------------------------------------------------------------
                                 ORCA GUESS
                   Start orbitals & Density for SCF / CASSCF
-------------------------------------------------------------------------------

------------
SCF SETTINGS
------------
Hamiltonian:
 Density Functional     Method          .... DFT(GTOs)
  Functional kind                       .... Exchange
  Functional name                       .... Re-regularized SCAN exchange by Furness et al
  Functional family                     .... MGGA
  Functional refs                              
    [ 0] J. W. Furness, A. D. Kaplan, J. Ning, J. P. Perdew, and J. Sun.,  J. Phys. Chem. Lett. 11, 8208-8215 (2020), doi: 10.1021/acs.jpclett.0c02405
    [ 1] J. W. Furness, A. D. Kaplan, J. Ning, J. P. Perdew, and J. Sun.,  J. Phys. Chem. Lett. 11, 9248-9248 (2020), doi: 10.1021/acs.jpclett.0c03077
  Functional external parameters        .... 6
    Parameter  0 _c1        =  6.670000e-01 : c1 parameter        
    Parameter  1 _c2        =  8.000000e-01 : c2 parameter        
    Parameter  2 _d         =  1.240000e+00 : d parameter         
    Parameter  3 _k1        =  6.500000e-02 : k1 parameter        
    Parameter  4 _eta       =  1.000000e-03 : eta parameter       
    Parameter  5 _dp2       =  3.610000e-01 : dp2 parameter       
  Functional kind                       .... Correlation
  Functional name                       .... Re-regularized SCAN correlation by Furness et al
  Functional family                     .... MGGA
  Functional refs                              
    [ 0] J. W. Furness, A. D. Kaplan, J. Ning, J. P. Perdew, and J. Sun.,  J. Phys. Chem. Lett. 11, 8208-8215 (2020), doi: 10.1021/acs.jpclett.0c02405
    [ 1] J. W. Furness, A. D. Kaplan, J. Ning, J. P. Perdew, and J. Sun.,  J. Phys. Chem. Lett. 11, 9248-9248 (2020), doi: 10.1021/acs.jpclett.0c03077
  Functional external parameters        .... 1
    Parameter  0 _eta       =  1.000000e-03 : Regularization parameter
 Gradients option       PostSCFGGA      .... off
 RI-approximation to the Coulomb term is turned on
   Number of AuxJ basis functions       .... 695


General Settings:
 Integral files         IntName         .... cli48_Compound_1
 Hartree-Fock type      HFTyp           .... RHF
 Total Charge           Charge          ....    0
 Multiplicity           Mult            ....    1
 Number of Electrons    NEL             ....  144
 Basis Dimension        Dim             ....  404
 Nuclear Repulsion      ENuc            ....   1532.9712685943 Eh

Convergence Acceleration:
 AO-DIIS                CNVDIIS         .... on
   Start iteration      DIISMaxIt       ....    12
   Startup error        DIISStart       ....  0.200000
   # of expansion vecs  DIISMaxEq       ....     5
   Bias factor          DIISBfac        ....   1.050
   Max. coefficient     DIISMaxC        ....  10.000
 MO-DIIS                CNVKDIIS        .... off
 Trust-Rad. Augm. Hess. CNVTRAH         .... auto
   Auto Start mean grad. ratio tolernc. ....  1.125000
   Auto Start start iteration           ....     1
   Auto Start num. interpolation iter.  ....    10
   Max. Number of Micro iterations      ....    24
   Max. Number of Macro iterations      .... Maxiter - #DIIS iter
   Number of Davidson start vectors     ....     2
   Converg. threshold    (grad. norm)   ....   1.000e-05
   Grad. Scal. Fac. for Micro threshold ....   0.100
   Minimum threshold for Micro iter.    ....   1.000e-02
   NR start threshold (gradient norm)   ....   1.000e-04
   Initial trust radius                 ....   0.400
   Minimum AH scaling param. (alpha)    ....   1.000
   Maximum AH scaling param. (alpha)    .... 1000.000
   Quad. conv. algorithm                .... NR
   White noise on init. David. guess    .... on
   Maximum white noise                  ....   0.010
   Pseudo random numbers                .... off
   Inactive MOs                         .... canonical
   Orbital update algorithm             .... Taylor
   Preconditioner                       .... Diag
   Full preconditioner red. dimension   ....   250
   COSX micro iterations for RIJONX calc.... off
 SOSCF                  CNVSOSCF        .... on
   Start iteration      SOSCFMaxIt      ....   150
   Startup grad/error   SOSCFStart      ....  0.003300
   Hessian update       SOSCFHessUp     .... L-BFGS
 Level Shifting         CNVShift        .... on
   Level shift para.    LevelShift      ....    0.2500
   Turn off err/grad.   ShiftErr        ....    0.0010
 Zerner damping         CNVZerner       .... off
 Static damping         CNVDamp         .... on
   Fraction old density DampFac         ....    0.7000
   Max. Damping (<1)    DampMax         ....    0.9800
   Min. Damping (>=0)   DampMin         ....    0.0000
   Turn off err/grad.   DampErr         ....    0.1000

SCF Procedure:
 Maximum # iterations   MaxIter         ....   500
 SCF integral mode      SCFMode         .... Direct
   Integral package                     .... SHARK and LIBINT hybrid scheme
 Reset frequency        DirectResetFreq ....    20
 Integral Threshold     Thresh          ....  2.500e-11 Eh
 Primitive CutOff       TCut            ....  2.500e-12 Eh

Convergence Tolerance:
 Convergence Check Mode ConvCheckMode   .... Total+1el-Energy
 Convergence forced     ConvForced      .... 0
 Energy Change          TolE            ....  1.000e-08 Eh
 1-El. energy change                    ....  1.000e-05 Eh
 Orbital Gradient       TolG            ....  1.000e-05
 Orbital Rotation angle TolX            ....  1.000e-05
 DIIS Error             TolErr          ....  5.000e-07

---------------------
INITIAL GUESS: MOREAD
---------------------
Guess MOs are being read from file: restart.gbw
Input geometry compatible with but different from current geometry
Input basis set matches current basis set (good)
Occupation numbers will be reassigned to an Aufbau configuration
MOs were renormalized
MOs were reorthogonalized (Cholesky)
                      ------------------
                      INITIAL GUESS DONE (   0.2 sec)
                      ------------------
             **** ENERGY FILE WAS UPDATED (cli48_Compound_1.en.tmp) ****
Finished Guess after   1.7 sec
Maximum memory used throughout the entire GUESS-calculation: 28.6 MB


           ************************************************************
           *        Program running with 20 parallel MPI-processes    *
           *              working on a common directory               *
           ************************************************************

-------------------------------------------------------------------------------------------
                                      ORCA LEAN-SCF
                              memory conserving SCF solver
-------------------------------------------------------------------------------------------

----------------------------------------D-I-I-S--------------------------------------------
Iteration    Energy (Eh)           Delta-E    RMSDP     MaxDP     DIISErr   Damp  Time(sec)
-------------------------------------------------------------------------------------------
               ***  Starting incremental Fock matrix formation  ***
                              *** Initializing SOSCF ***
---------------------------------------S-O-S-C-F--------------------------------------
Iteration    Energy (Eh)           Delta-E    RMSDP     MaxDP     MaxGrad    Time(sec)
--------------------------------------------------------------------------------------
    1    -1592.1774097356983475     0.00e+00  9.61e-07  4.52e-05  2.66e-07     2.0
               *** Restarting incremental Fock matrix formation ***
    2    -1592.1774097357565552    -5.82e-11  2.40e-07  1.01e-05  7.28e-07     1.5
                  *** Gradient check signals convergence ***

               *****************************************************
               *                     SUCCESS                       *
               *           SCF CONVERGED AFTER   2 CYCLES          *
               *****************************************************

             **** ENERGY FILE WAS UPDATED (cli48_Compound_1.en.tmp) ****

----------------
TOTAL SCF ENERGY
----------------

Total Energy       :      -1592.17740973575656 Eh          -43325.34994 eV

Components:
Nuclear Repulsion  :       1532.97126859430136 Eh           41714.26893 eV
Electronic Energy  :      -3125.14867833005792 Eh          -85039.61887 eV
One Electron Energy:      -5269.54762883881722 Eh         -143391.68087 eV
Two Electron Energy:       2144.39895050875930 Eh           58352.06200 eV

Virial components:
Potential Energy   :      -3118.64401155124006 Eh          -84862.61789 eV
Kinetic Energy     :       1526.46660181548350 Eh           41537.26795 eV
Virial Ratio       :          2.04304765518100

DFT components:
N(Alpha)           :       72.000039760268 electrons
N(Beta)            :       72.000039760268 electrons
N(Total)           :      144.000079520537 electrons
E(X)               :     -142.696914442012 Eh       
E(C)               :       -5.014030571750 Eh       
E(XC)              :     -147.710945013763 Eh       

---------------
SCF CONVERGENCE
---------------

  Last Energy change         ...    5.8208e-11  Tolerance :   1.0000e-08
  Last MAX-Density change    ...    1.0143e-05  Tolerance :   1.0000e-07
  Last RMS-Density change    ...    2.3984e-07  Tolerance :   5.0000e-09
  Last DIIS Error            ...    1.8942e-06  Tolerance :   5.0000e-07
  Last Orbital Gradient      ...    7.2843e-07  Tolerance :   1.0000e-05
  Last Orbital Rotation      ...    1.9961e-06  Tolerance :   1.0000e-05


----------------
ORBITAL ENERGIES
----------------

  NO   OCC          E(Eh)            E(eV) 
   0   2.0000    -101.175086     -2753.1141 
   1   2.0000    -101.174219     -2753.0905 
   2   2.0000     -19.042509      -518.1730 
   3   2.0000     -19.025032      -517.6974 
   4   2.0000     -10.152311      -276.2584 
   5   2.0000     -10.137320      -275.8505 
   6   2.0000     -10.128795      -275.6185 
   7   2.0000     -10.094708      -274.6910 
   8   2.0000     -10.077391      -274.2198 
   9   2.0000     -10.074531      -274.1419 
  10   2.0000     -10.073308      -274.1086 
  11   2.0000     -10.070747      -274.0390 
  12   2.0000     -10.062391      -273.8116 
  13   2.0000     -10.044120      -273.3144 
  14   2.0000     -10.042510      -273.2706 
  15   2.0000      -9.330016      -253.8826 
  16   2.0000      -9.329100      -253.8577 
  17   2.0000      -7.073489      -192.4794 
  18   2.0000      -7.072661      -192.4569 
  19   2.0000      -7.068276      -192.3376 
  20   2.0000      -7.067323      -192.3116 
  21   2.0000      -7.066984      -192.3024 
  22   2.0000      -7.066026      -192.2763 
  23   2.0000      -3.023806       -82.2820 
  24   2.0000      -1.877104       -51.0786 
  25   2.0000      -1.873058       -50.9685 
  26   2.0000      -1.871954       -50.9385 
  27   2.0000      -1.092858       -29.7382 
  28   2.0000      -1.076324       -29.2883 
  29   2.0000      -0.860809       -23.4238 
  30   2.0000      -0.795446       -21.6452 
  31   2.0000      -0.772345       -21.0166 
  32   2.0000      -0.739453       -20.1215 
  33   2.0000      -0.733192       -19.9512 
  34   2.0000      -0.725506       -19.7420 
  35   2.0000      -0.682573       -18.5738 
  36   2.0000      -0.665630       -18.1127 
  37   2.0000      -0.635927       -17.3045 
  38   2.0000      -0.583412       -15.8754 
  39   2.0000      -0.573048       -15.5934 
  40   2.0000      -0.545148       -14.8342 
  41   2.0000      -0.530635       -14.4393 
  42   2.0000      -0.493768       -13.4361 
  43   2.0000      -0.481460       -13.1012 
  44   2.0000      -0.463881       -12.6228 
  45   2.0000      -0.452069       -12.3014 
  46   2.0000      -0.443867       -12.0782 
  47   2.0000      -0.434377       -11.8200 
  48   2.0000      -0.428561       -11.6617 
  49   2.0000      -0.424579       -11.5534 
  50   2.0000      -0.412270       -11.2184 
  51   2.0000      -0.406463       -11.0604 
  52   2.0000      -0.390092       -10.6149 
  53   2.0000      -0.384931       -10.4745 
  54   2.0000      -0.381336       -10.3767 
  55   2.0000      -0.375231       -10.2106 
  56   2.0000      -0.357337        -9.7236 
  57   2.0000      -0.356989        -9.7142 
  58   2.0000      -0.348945        -9.4953 
  59   2.0000      -0.342229        -9.3125 
  60   2.0000      -0.340103        -9.2547 
  61   2.0000      -0.334215        -9.0944 
  62   2.0000      -0.330962        -9.0059 
  63   2.0000      -0.300596        -8.1796 
  64   2.0000      -0.298495        -8.1225 
  65   2.0000      -0.274422        -7.4674 
  66   2.0000      -0.274127        -7.4594 
  67   2.0000      -0.272120        -7.4048 
  68   2.0000      -0.247921        -6.7463 
  69   2.0000      -0.244580        -6.6554 
  70   2.0000      -0.218656        -5.9499 
  71   2.0000      -0.212932        -5.7942 
  72   0.0000      -0.128251        -3.4899 
  73   0.0000      -0.110366        -3.0032 
  74   0.0000      -0.068512        -1.8643 
  75   0.0000      -0.055664        -1.5147 
  76   0.0000      -0.030484        -0.8295 
  77   0.0000      -0.022900        -0.6231 
  78   0.0000      -0.016739        -0.4555 
  79   0.0000       0.034937         0.9507 
  80   0.0000       0.043541         1.1848 
  81   0.0000       0.054161         1.4738 
  82   0.0000       0.059041         1.6066 
*Only the first 10 virtual orbitals were printed.

                    ********************************
                    * MULLIKEN POPULATION ANALYSIS *
                    ********************************

-----------------------
MULLIKEN ATOMIC CHARGES
-----------------------
   0 Ru:    0.103179
   1 O :   -0.089724
   2 C :   -0.104662
   3 H :    0.149738
   4 C :   -0.073691
   5 H :    0.153396
   6 C :   -0.418402
   7 H :    0.154979
   8 H :    0.159624
   9 H :    0.192728
  10 C :   -0.464665
  11 H :    0.181642
  12 H :    0.153140
  13 H :    0.193166
  14 C :    0.266533
  15 C :   -0.254275
  16 H :    0.153899
  17 C :   -0.123008
  18 H :    0.153796
  19 C :   -0.154234
  20 H :    0.153615
  21 C :   -0.205169
  22 H :    0.151160
  23 C :    0.012042
  24 Cl:   -0.368384
  25 Cl:   -0.382305
  26 C :    0.595457
  27 O :   -0.289575
Sum of atomic charges:   -0.0000000

--------------------------------
MULLIKEN REDUCED ORBITAL CHARGES
--------------------------------
  0 Rus       :     2.672011  s :     2.672011
      pz      :     2.185712  p :     6.566886
      px      :     2.217583
      py      :     2.163591
      dz2     :     1.178536  d :     6.657924
      dxz     :     1.500476
      dyz     :     1.306151
      dx2y2   :     1.518733
      dxy     :     1.154027

  1 O s       :     3.657395  s :     3.657395
      pz      :     1.761198  p :     4.349086
      px      :     1.442628
      py      :     1.145260
      dz2     :     0.008299  d :     0.083243
      dxz     :     0.018031
      dyz     :     0.015360
      dx2y2   :     0.024073
      dxy     :     0.017480

  2 C s       :     3.158941  s :     3.158941
      pz      :     0.865400  p :     2.907245
      px      :     1.028041
      py      :     1.013804
      dz2     :     0.003203  d :     0.038476
      dxz     :     0.007063
      dyz     :     0.004829
      dx2y2   :     0.015473
      dxy     :     0.007908

  3 H s       :     0.831034  s :     0.831034
      pz      :     0.004833  p :     0.019227
      px      :     0.004329
      py      :     0.010066

  4 C s       :     3.230412  s :     3.230412
      pz      :     0.988299  p :     2.778986
      px      :     1.041695
      py      :     0.748992
      dz2     :     0.010155  d :     0.064293
      dxz     :     0.014021
      dyz     :     0.013183
      dx2y2   :     0.015460
      dxy     :     0.011473

  5 H s       :     0.829262  s :     0.829262
      pz      :     0.008278  p :     0.017342
      px      :     0.006812
      py      :     0.002253

  6 C s       :     3.304921  s :     3.304921
      pz      :     0.986674  p :     3.086819
      px      :     1.079515
      py      :     1.020630
      dz2     :     0.004230  d :     0.026662
      dxz     :     0.008458
      dyz     :     0.005332
      dx2y2   :     0.003963
      dxy     :     0.004678

  7 H s       :     0.826661  s :     0.826661
      pz      :     0.004716  p :     0.018360
      px      :     0.008259
      py      :     0.005385

  8 H s       :     0.822362  s :     0.822362
      pz      :     0.003930  p :     0.018014
      px      :     0.004394
      py      :     0.009691

  9 H s       :     0.789036  s :     0.789036
      pz      :     0.007749  p :     0.018236
      px      :     0.007047
      py      :     0.003440

 10 C s       :     3.352377  s :     3.352377
      pz      :     1.084656  p :     3.085417
      px      :     0.949041
      py      :     1.051720
      dz2     :     0.003325  d :     0.026871
      dxz     :     0.008694
      dyz     :     0.004261
      dx2y2   :     0.005288
      dxy     :     0.005303

 11 H s       :     0.800111  s :     0.800111
      pz      :     0.007746  p :     0.018247
      px      :     0.006846
      py      :     0.003655

 12 H s       :     0.828795  s :     0.828795
      pz      :     0.004532  p :     0.018066
      px      :     0.003687
      py      :     0.009846

 13 H s       :     0.788532  s :     0.788532
      pz      :     0.007703  p :     0.018302
      px      :     0.004851
      py      :     0.005747

 14 C s       :     3.121682  s :     3.121682
      pz      :     0.890087  p :     2.538663
      px      :     0.773429
      py      :     0.875148
      dz2     :     0.006880  d :     0.073121
      dxz     :     0.013539
      dyz     :     0.010536
      dx2y2   :     0.019122
      dxy     :     0.023045

 15 C s       :     3.239791  s :     3.239791
      pz      :     1.055665  p :     2.977610
      px      :     0.936342
      py      :     0.985603
      dz2     :     0.003407  d :     0.036875
      dxz     :     0.006596
      dyz     :     0.004242
      dx2y2   :     0.012811
      dxy     :     0.009820

 16 H s       :     0.826019  s :     0.826019
      pz      :     0.005735  p :     0.020081
      px      :     0.004361
      py      :     0.009985

 17 C s       :     3.199985  s :     3.199985
      pz      :     0.948714  p :     2.883978
      px      :     1.019907
      py      :     0.915357
      dz2     :     0.004292  d :     0.039045
      dxz     :     0.004089
      dyz     :     0.007278
      dx2y2   :     0.012250
      dxy     :     0.011136

 18 H s       :     0.827016  s :     0.827016
      pz      :     0.004285  p :     0.019188
      px      :     0.011637
      py      :     0.003267

 19 C s       :     3.188050  s :     3.188050
      pz      :     0.989522  p :     2.928159
      px      :     0.960970
      py      :     0.977668
      dz2     :     0.004157  d :     0.038025
      dxz     :     0.005900
      dyz     :     0.004696
      dx2y2   :     0.011170
      dxy     :     0.012103

 20 H s       :     0.827026  s :     0.827026
      pz      :     0.004263  p :     0.019359
      px      :     0.006799
      py      :     0.008298

 21 C s       :     3.235212  s :     3.235212
      pz      :     0.977827  p :     2.931201
      px      :     0.944008
      py      :     1.009367
      dz2     :     0.003276  d :     0.038755
      dxz     :     0.007669
      dyz     :     0.004026
      dx2y2   :     0.011106
      dxy     :     0.012679

 22 H s       :     0.829516  s :     0.829516
      pz      :     0.005224  p :     0.019324
      px      :     0.004101
      py      :     0.009999

 23 C s       :     3.240833  s :     3.240833
      pz      :     1.006474  p :     2.698656
      px      :     0.778588
      py      :     0.913594
      dz2     :     0.004761  d :     0.048469
      dxz     :     0.007132
      dyz     :     0.007166
      dx2y2   :     0.014852
      dxy     :     0.014558

 24 Cls       :     5.964976  s :     5.964976
      pz      :     3.564751  p :    11.372823
      px      :     3.916900
      py      :     3.891172
      dz2     :     0.010810  d :     0.030585
      dxz     :     0.008956
      dyz     :     0.008566
      dx2y2   :     0.001061
      dxy     :     0.001191

 25 Cls       :     5.965019  s :     5.965019
      pz      :     3.729619  p :    11.386955
      px      :     3.925596
      py      :     3.731739
      dz2     :     0.009972  d :     0.030331
      dxz     :     0.005214
      dyz     :     0.008273
      dx2y2   :     0.002465
      dxy     :     0.004408

 26 C s       :     3.175031  s :     3.175031
      pz      :     0.709432  p :     2.146656
      px      :     0.731137
      py      :     0.706087
      dz2     :     0.010189  d :     0.082855
      dxz     :     0.020475
      dyz     :     0.008854
      dx2y2   :     0.024968
      dxy     :     0.018369

 27 O s       :     3.876403  s :     3.876403
      pz      :     1.502887  p :     4.376602
      px      :     1.406444
      py      :     1.467272
      dz2     :     0.004227  d :     0.036570
      dxz     :     0.008108
      dyz     :     0.003146
      dx2y2   :     0.009450
      dxy     :     0.011639



                     *******************************
                     * LOEWDIN POPULATION ANALYSIS *
                     *******************************

----------------------
LOEWDIN ATOMIC CHARGES
----------------------
   0 Ru:   -0.393919
   1 O :   -0.680835
   2 C :   -0.031334
   3 H :    0.183221
   4 C :    0.085883
   5 H :    0.182437
   6 C :   -0.378998
   7 H :    0.167059
   8 H :    0.165391
   9 H :    0.180102
  10 C :   -0.371619
  11 H :    0.178978
  12 H :    0.168311
  13 H :    0.181256
  14 C :    0.248990
  15 C :   -0.155628
  16 H :    0.181828
  17 C :   -0.125168
  18 H :    0.174758
  19 C :   -0.172033
  20 H :    0.174729
  21 C :   -0.109437
  22 H :    0.179270
  23 C :   -0.056289
  24 Cl:   -0.036948
  25 Cl:   -0.049709
  26 C :    0.346619
  27 O :   -0.236913

-------------------------------
LOEWDIN REDUCED ORBITAL CHARGES
-------------------------------
  0 Rus       :     2.288501  s :     2.288501
      pz      :     2.407245  p :     6.961352
      px      :     2.264329
      py      :     2.289778
      dz2     :     1.326482  d :     7.144066
      dxz     :     1.545131
      dyz     :     1.398890
      dx2y2   :     1.560541
      dxy     :     1.313022

  1 O s       :     3.428174  s :     3.428174
      pz      :     1.748845  p :     4.658218
      px      :     1.544905
      py      :     1.364468
      dz2     :     0.065766  d :     0.594443
      dxz     :     0.090096
      dyz     :     0.112873
      dx2y2   :     0.158901
      dxy     :     0.166808

  2 C s       :     2.966768  s :     2.966768
      pz      :     0.878639  p :     2.990129
      px      :     1.045801
      py      :     1.065689
      dz2     :     0.005245  d :     0.074436
      dxz     :     0.012720
      dyz     :     0.008835
      dx2y2   :     0.032088
      dxy     :     0.015548

  3 H s       :     0.771163  s :     0.771163
      pz      :     0.010996  p :     0.045616
      px      :     0.009918
      py      :     0.024702

  4 C s       :     2.837160  s :     2.837160
      pz      :     1.053022  p :     2.944831
      px      :     1.068807
      py      :     0.823003
      dz2     :     0.019080  d :     0.132126
      dxz     :     0.030318
      dyz     :     0.026946
      dx2y2   :     0.031240
      dxy     :     0.024541

  5 H s       :     0.776186  s :     0.776186
      pz      :     0.019727  p :     0.041377
      px      :     0.016123
      py      :     0.005528

  6 C s       :     2.967033  s :     2.967033
      pz      :     1.101689  p :     3.351240
      px      :     1.142269
      py      :     1.107283
      dz2     :     0.009420  d :     0.060724
      dxz     :     0.019348
      dyz     :     0.011726
      dx2y2   :     0.009305
      dxy     :     0.010926

  7 H s       :     0.789043  s :     0.789043
      pz      :     0.010716  p :     0.043897
      px      :     0.020280
      py      :     0.012901

  8 H s       :     0.791256  s :     0.791256
      pz      :     0.009199  p :     0.043353
      px      :     0.010031
      py      :     0.024123

  9 H s       :     0.774991  s :     0.774991
      pz      :     0.019437  p :     0.044907
      px      :     0.017825
      py      :     0.007644

 10 C s       :     2.962779  s :     2.962779
      pz      :     1.149552  p :     3.348433
      px      :     1.077714
      py      :     1.121167
      dz2     :     0.007044  d :     0.060406
      dxz     :     0.019769
      dyz     :     0.009761
      dx2y2   :     0.012577
      dxy     :     0.011256

 11 H s       :     0.776608  s :     0.776608
      pz      :     0.019671  p :     0.044414
      px      :     0.016737
      py      :     0.008006

 12 H s       :     0.788417  s :     0.788417
      pz      :     0.010308  p :     0.043272
      px      :     0.008592
      py      :     0.024372

 13 H s       :     0.773691  s :     0.773691
      pz      :     0.019910  p :     0.045054
      px      :     0.011258
      py      :     0.013885

 14 C s       :     2.765361  s :     2.765361
      pz      :     0.910693  p :     2.830141
      px      :     0.987474
      py      :     0.931974
      dz2     :     0.014511  d :     0.155509
      dxz     :     0.025613
      dyz     :     0.021113
      dx2y2   :     0.043498
      dxy     :     0.050773

 15 C s       :     2.889584  s :     2.889584
      pz      :     1.042505  p :     3.188147
      px      :     1.046059
      py      :     1.099582
      dz2     :     0.005771  d :     0.077898
      dxz     :     0.012646
      dyz     :     0.008062
      dx2y2   :     0.027817
      dxy     :     0.023602

 16 H s       :     0.771960  s :     0.771960
      pz      :     0.013087  p :     0.046212
      px      :     0.009709
      py      :     0.023416

 17 C s       :     2.908390  s :     2.908390
      pz      :     0.964758  p :     3.134648
      px      :     1.096029
      py      :     1.073862
      dz2     :     0.007554  d :     0.082131
      dxz     :     0.007735
      dyz     :     0.014159
      dx2y2   :     0.028098
      dxy     :     0.024584

 18 H s       :     0.781086  s :     0.781086
      pz      :     0.009347  p :     0.044156
      px      :     0.027712
      py      :     0.007097

 19 C s       :     2.903640  s :     2.903640
      pz      :     1.011491  p :     3.187190
      px      :     1.091970
      py      :     1.083729
      dz2     :     0.007443  d :     0.081204
      dxz     :     0.011644
      dyz     :     0.008937
      dx2y2   :     0.025151
      dxy     :     0.028029

 20 H s       :     0.780717  s :     0.780717
      pz      :     0.009293  p :     0.044554
      px      :     0.015769
      py      :     0.019493

 21 C s       :     2.901345  s :     2.901345
      pz      :     0.970936  p :     3.126513
      px      :     1.083582
      py      :     1.071994
      dz2     :     0.005677  d :     0.081579
      dxz     :     0.014622
      dyz     :     0.007728
      dx2y2   :     0.025431
      dxy     :     0.028122

 22 H s       :     0.776320  s :     0.776320
      pz      :     0.011715  p :     0.044410
      px      :     0.009222
      py      :     0.023473

 23 C s       :     2.841892  s :     2.841892
      pz      :     1.005967  p :     3.115053
      px      :     1.064334
      py      :     1.044752
      dz2     :     0.008954  d :     0.099343
      dxz     :     0.013417
      dyz     :     0.013205
      dx2y2   :     0.031953
      dxy     :     0.031815

 24 Cls       :     5.710383  s :     5.710383
      pz      :     3.535866  p :    11.269401
      px      :     3.877268
      py      :     3.856267
      dz2     :     0.020012  d :     0.057163
      dxz     :     0.018041
      dyz     :     0.015516
      dx2y2   :     0.001784
      dxy     :     0.001809

 25 Cls       :     5.712289  s :     5.712289
      pz      :     3.701223  p :    11.280974
      px      :     3.885772
      py      :     3.693979
      dz2     :     0.017279  d :     0.056446
      dxz     :     0.010656
      dyz     :     0.014609
      dx2y2   :     0.004916
      dxy     :     0.008987

 26 C s       :     2.966326  s :     2.966326
      pz      :     0.745700  p :     2.517423
      px      :     0.972627
      py      :     0.799096
      dz2     :     0.021090  d :     0.169631
      dxz     :     0.040792
      dyz     :     0.017069
      dx2y2   :     0.048806
      dxy     :     0.041875

 27 O s       :     3.545303  s :     3.545303
      pz      :     1.493727  p :     4.515690
      px      :     1.528733
      py      :     1.493231
      dz2     :     0.022702  d :     0.175920
      dxz     :     0.038649
      dyz     :     0.015617
      dx2y2   :     0.042518
      dxy     :     0.056434



                      *****************************
                      * MAYER POPULATION ANALYSIS *
                      *****************************

  NA   - Mulliken gross atomic population
  ZA   - Total nuclear charge
  QA   - Mulliken gross atomic charge
  VA   - Mayer's total valence
  BVA  - Mayer's bonded valence
  FA   - Mayer's free valence

  ATOM       NA         ZA         QA         VA         BVA        FA
  0 Ru    15.8968    16.0000     0.1032     5.5886     5.5886    -0.0000
  1 O      8.0897     8.0000    -0.0897     2.0316     2.0316     0.0000
  2 C      6.1047     6.0000    -0.1047     3.5348     3.5348    -0.0000
  3 H      0.8503     1.0000     0.1497     0.9588     0.9588    -0.0000
  4 C      6.0737     6.0000    -0.0737     3.6505     3.6505    -0.0000
  5 H      0.8466     1.0000     0.1534     0.9494     0.9494    -0.0000
  6 C      6.4184     6.0000    -0.4184     3.7084     3.7084    -0.0000
  7 H      0.8450     1.0000     0.1550     0.9664     0.9664    -0.0000
  8 H      0.8404     1.0000     0.1596     0.9616     0.9616    -0.0000
  9 H      0.8073     1.0000     0.1927     0.9573     0.9573     0.0000
 10 C      6.4647     6.0000    -0.4647     3.6726     3.6726    -0.0000
 11 H      0.8184     1.0000     0.1816     0.9629     0.9629    -0.0000
 12 H      0.8469     1.0000     0.1531     0.9627     0.9627    -0.0000
 13 H      0.8068     1.0000     0.1932     0.9561     0.9561     0.0000
 14 C      5.7335     6.0000     0.2665     3.9216     3.9216    -0.0000
 15 C      6.2543     6.0000    -0.2543     3.7565     3.7565    -0.0000
 16 H      0.8461     1.0000     0.1539     0.9675     0.9675    -0.0000
 17 C      6.1230     6.0000    -0.1230     3.7997     3.7997    -0.0000
 18 H      0.8462     1.0000     0.1538     0.9662     0.9662     0.0000
 19 C      6.1542     6.0000    -0.1542     3.8087     3.8087    -0.0000
 20 H      0.8464     1.0000     0.1536     0.9681     0.9681    -0.0000
[...]
 33:    623.63   0.000256    1.29  0.000128  (-0.005167 -0.009395 -0.003638)
 34:    629.51   0.003324   16.80  0.001648  ( 0.033085 -0.020356 -0.011774)
 35:    730.84   0.000067    0.34  0.000029  (-0.002115  0.001540  0.004673)
 36:    750.99   0.011747   59.37  0.004881  (-0.009662  0.021720 -0.065699)
 37:    795.59   0.001209    6.11  0.000474  ( 0.021103 -0.005119  0.001597)
 38:    818.27   0.002970   15.01  0.001133  (-0.004996 -0.032965 -0.004572)
 39:    834.11   0.004175   21.10  0.001562  ( 0.004054 -0.009226  0.038214)
 40:    862.17   0.001039    5.25  0.000376  ( 0.003051 -0.006175  0.018131)
 41:    869.96   0.002101   10.62  0.000754  (-0.020665  0.018009  0.001487)
 42:    898.47   0.005838   29.50  0.002028  ( 0.036037 -0.024863 -0.010522)
 43:    941.02   0.006757   34.15  0.002241  (-0.003422 -0.045551 -0.012421)
 44:    944.08   0.005967   30.16  0.001972  ( 0.004017  0.044230 -0.000228)
 45:    946.02   0.000600    3.03  0.000198  ( 0.007398  0.006295  0.010184)
 46:    952.90   0.001453    7.34  0.000476  ( 0.003928  0.019448  0.009070)
 47:    976.91   0.000012    0.06  0.000004  (-0.000992  0.001519  0.000710)
 48:   1063.88   0.001331    6.73  0.000390  (-0.009864 -0.016939 -0.002505)
 49:   1121.35   0.016826   85.03  0.004683  ( 0.012432 -0.063504 -0.022254)
 50:   1146.08   0.007881   39.83  0.002146  ( 0.002668  0.044535  0.012472)
 51:   1162.03   0.001691    8.54  0.000454  ( 0.013533 -0.009628  0.013348)
 52:   1190.79   0.001685    8.52  0.000442  ( 0.010775 -0.013484 -0.011991)
 53:   1206.12   0.002348   11.87  0.000608  ( 0.002567  0.024303 -0.003227)
 54:   1211.58   0.001112    5.62  0.000286  ( 0.016344  0.001616 -0.004086)
 55:   1248.99   0.008471   42.81  0.002116  ( 0.015530  0.043029  0.004871)
 56:   1286.34   0.005314   26.85  0.001289  ( 0.019184 -0.028018 -0.011664)
 57:   1340.39   0.009742   49.23  0.002268  ( 0.045040  0.015377 -0.001721)
 58:   1354.30   0.001823    9.21  0.000420  ( 0.008575 -0.018529  0.001797)
 59:   1371.79   0.001921    9.71  0.000437  (-0.018089  0.008131  0.006610)
 60:   1379.49   0.001376    6.95  0.000311  ( 0.013372 -0.011237  0.002467)
 61:   1400.75   0.004639   23.44  0.001034  ( 0.021687  0.000495  0.023726)
 62:   1415.01   0.008025   40.56  0.001770  (-0.000623 -0.041848  0.004272)
 63:   1472.04   0.001068    5.39  0.000226  ( 0.008369  0.008038  0.009574)
 64:   1482.12   0.001385    7.00  0.000292  (-0.014854  0.004043  0.007389)
 65:   1486.59   0.007456   37.68  0.001565  ( 0.025217  0.030483  0.000081)
 66:   1489.27   0.002135   10.79  0.000447  (-0.001552  0.010565  0.018257)
 67:   1499.91   0.007346   37.13  0.001528  ( 0.017043  0.035055  0.003021)
 68:   1511.75   0.004111   20.78  0.000849  (-0.000948 -0.025722 -0.013643)
 69:   1605.43   0.002736   13.83  0.000532  ( 0.005591  0.021532  0.006076)
 70:   1626.26   0.012607   63.71  0.002419  ( 0.046807  0.013998 -0.005695)
 71:   2069.63   0.187075  945.40  0.028208  (-0.152013  0.056692  0.043423)
 72:   3021.99   0.001146    5.79  0.000118  ( 0.006939  0.005781  0.006064)
 73:   3027.55   0.002468   12.47  0.000254  (-0.009038  0.013040 -0.001636)
 74:   3036.61   0.002588   13.08  0.000266  (-0.009699 -0.000987  0.013073)
 75:   3107.51   0.001168    5.90  0.000117  (-0.006831  0.006296  0.005569)
 76:   3109.39   0.000806    4.07  0.000081  (-0.004580  0.006790  0.003718)
 77:   3115.22   0.002876   14.53  0.000288  ( 0.001375  0.013962  0.009553)
 78:   3128.88   0.000655    3.31  0.000065  ( 0.007304  0.003191 -0.001337)
 79:   3133.87   0.000484    2.45  0.000048  ( 0.000140  0.003339 -0.006084)
 80:   3172.30   0.000117    0.59  0.000011  (-0.000985  0.003024  0.001167)
 81:   3179.17   0.000427    2.16  0.000042  ( 0.004195 -0.004095 -0.002753)
 82:   3195.33   0.001775    8.97  0.000173  ( 0.009276  0.009202  0.001614)
 83:   3213.90   0.000443    2.24  0.000043  ( 0.003934 -0.004923 -0.001828)

* The epsilon (eps) is given for a Dirac delta lineshape.
** The dipole moment derivative (T) already includes vibrational overlap.

The first frequency considered to be a vibration is 6
The total number of vibrations considered is 78


--------------------------
THERMOCHEMISTRY AT 298.15K
--------------------------

Temperature         ...   298.15 K
Pressure            ...     1.00 atm
Total Mass          ...   348.19 AMU
Quasi RRHO          ...     True
Cut-Off Frequency   ...     1.00 cm^-1

Throughout the following assumptions are being made:
  (1) The electronic state is orbitally nondegenerate
  (2) There are no thermally accessible electronically excited states
  (3) Hindered rotations indicated by low frequency modes are not
      treated as such but are treated as vibrations and this may
      cause some error
  (4) All equations used are the standard statistical mechanics
      equations for an ideal gas
  (5) All vibrations are strictly harmonic

freq.      49.36  E(vib)   ...       0.52 
freq.      75.76  E(vib)   ...       0.49 
freq.      79.47  E(vib)   ...       0.49 
freq.      83.04  E(vib)   ...       0.48 
freq.     103.90  E(vib)   ...       0.46 
freq.     110.63  E(vib)   ...       0.45 
freq.     115.62  E(vib)   ...       0.44 
freq.     133.37  E(vib)   ...       0.42 
freq.     146.60  E(vib)   ...       0.41 
freq.     154.93  E(vib)   ...       0.40 
freq.     209.71  E(vib)   ...       0.34 
freq.     224.36  E(vib)   ...       0.33 
freq.     234.83  E(vib)   ...       0.32 
freq.     245.51  E(vib)   ...       0.31 
freq.     280.66  E(vib)   ...       0.28 
freq.     313.21  E(vib)   ...       0.25 
freq.     328.24  E(vib)   ...       0.24 
freq.     355.62  E(vib)   ...       0.22 
freq.     372.65  E(vib)   ...       0.21 
freq.     386.23  E(vib)   ...       0.20 
freq.     445.68  E(vib)   ...       0.17 
freq.     454.99  E(vib)   ...       0.16 
freq.     495.10  E(vib)   ...       0.14 
freq.     543.88  E(vib)   ...       0.12 
freq.     549.98  E(vib)   ...       0.12 
freq.     566.65  E(vib)   ...       0.11 
freq.     569.77  E(vib)   ...       0.11 
freq.     623.63  E(vib)   ...       0.09 
freq.     629.51  E(vib)   ...       0.09 
freq.     730.84  E(vib)   ...       0.06 
freq.     750.99  E(vib)   ...       0.06 
freq.     795.59  E(vib)   ...       0.05 
freq.     818.27  E(vib)   ...       0.05 
freq.     834.11  E(vib)   ...       0.04 
freq.     862.17  E(vib)   ...       0.04 
freq.     869.96  E(vib)   ...       0.04 
freq.     898.47  E(vib)   ...       0.03 
freq.     941.02  E(vib)   ...       0.03 
freq.     944.08  E(vib)   ...       0.03 
freq.     946.02  E(vib)   ...       0.03 
freq.     952.90  E(vib)   ...       0.03 
freq.     976.91  E(vib)   ...       0.03 
freq.    1063.88  E(vib)   ...       0.02 
freq.    1121.35  E(vib)   ...       0.01 
freq.    1146.08  E(vib)   ...       0.01 
freq.    1162.03  E(vib)   ...       0.01 
freq.    1190.79  E(vib)   ...       0.01 
freq.    1206.12  E(vib)   ...       0.01 
freq.    1211.58  E(vib)   ...       0.01 
freq.    1248.99  E(vib)   ...       0.01 
freq.    1286.34  E(vib)   ...       0.01 
freq.    1340.39  E(vib)   ...       0.01 
freq.    1354.30  E(vib)   ...       0.01 
freq.    1371.79  E(vib)   ...       0.01 
freq.    1379.49  E(vib)   ...       0.01 
freq.    1400.75  E(vib)   ...       0.00 
freq.    1415.01  E(vib)   ...       0.00 
freq.    1472.04  E(vib)   ...       0.00 
freq.    1482.12  E(vib)   ...       0.00 
freq.    1486.59  E(vib)   ...       0.00 
freq.    1489.27  E(vib)   ...       0.00 
freq.    1499.91  E(vib)   ...       0.00 
freq.    1511.75  E(vib)   ...       0.00 
freq.    1605.43  E(vib)   ...       0.00 
freq.    1626.26  E(vib)   ...       0.00 
freq.    2069.63  E(vib)   ...       0.00 
freq.    3021.99  E(vib)   ...       0.00 
freq.    3027.55  E(vib)   ...       0.00 
freq.    3036.61  E(vib)   ...       0.00 
freq.    3107.51  E(vib)   ...       0.00 
freq.    3109.39  E(vib)   ...       0.00 
freq.    3115.22  E(vib)   ...       0.00 
freq.    3128.88  E(vib)   ...       0.00 
freq.    3133.87  E(vib)   ...       0.00 
freq.    3172.30  E(vib)   ...       0.00 
freq.    3179.17  E(vib)   ...       0.00 
freq.    3195.33  E(vib)   ...       0.00 
freq.    3213.90  E(vib)   ...       0.00 

------------
INNER ENERGY
------------

The inner energy is: U= E(el) + E(ZPE) + E(vib) + E(rot) + E(trans)
    E(el)   - is the total energy from the electronic structure calculation
              = E(kin-el) + E(nuc-el) + E(el-el) + E(nuc-nuc)
    E(ZPE)  - the the zero temperature vibrational energy from the frequency calculation
    E(vib)  - the the finite temperature correction to E(ZPE) due to population
              of excited vibrational states
    E(rot)  - is the rotational thermal energy
    E(trans)- is the translational thermal energy

Summary of contributions to the inner energy U:
Electronic energy                ...  -1592.17878586 Eh
Zero point energy                ...      0.20682985 Eh     129.79 kcal/mol
Thermal vibrational correction   ...      0.01444076 Eh       9.06 kcal/mol
Thermal rotational correction    ...      0.00141627 Eh       0.89 kcal/mol
Thermal translational correction ...      0.00141627 Eh       0.89 kcal/mol
-----------------------------------------------------------------------
Total thermal energy                  -1591.95468270 Eh


Summary of corrections to the electronic energy:
(perhaps to be used in another calculation)
Total thermal correction                  0.01727331 Eh      10.84 kcal/mol
Non-thermal (ZPE) correction              0.20682985 Eh     129.79 kcal/mol
-----------------------------------------------------------------------
Total correction                          0.22410316 Eh     140.63 kcal/mol


--------
ENTHALPY
--------

The enthalpy is H = U + kB*T
                kB is Boltzmann's constant
Total thermal energy              ...  -1591.95468270 Eh 
Thermal Enthalpy correction       ...      0.00094421 Eh       0.59 kcal/mol
-----------------------------------------------------------------------
Total Enthalpy                    ...  -1591.95373849 Eh


Note: Only C1 symmetry has been detected, increase convergence thresholds 
      if your molecule has a higher symmetry. Symmetry factor of 1.0 is   
      used for the rotational entropy correction. 
 

Note: Rotational entropy computed according to Herzberg 
Infrared and Raman Spectra, Chapter V,1, Van Nostrand Reinhold, 1945 
Point Group:  C1, Symmetry Number:   1  
Rotational constants in cm-1:     0.016146     0.009962     0.008519 

Vibrational entropy computed according to the QRRHO of S. Grimme
Chem.Eur.J. 2012 18 9955 using a reference frequency of 100.0 cm-1


-------
ENTROPY
-------

The entropy contributions are T*S = T*(S(el)+S(vib)+S(rot)+S(trans))
     S(el)   - electronic entropy
     S(vib)  - vibrational entropy
     S(rot)  - rotational entropy
     S(trans)- translational entropy
The entropies will be listed as multiplied by the temperature to get
units of energy

Electronic entropy                ...      0.00000000 Eh      0.00 kcal/mol
Vibrational entropy               ...      0.02555166 Eh     16.03 kcal/mol
Rotational entropy                ...      0.01588430 Eh      9.97 kcal/mol
Translational entropy             ...      0.02063816 Eh     12.95 kcal/mol
-----------------------------------------------------------------------
Final entropy term                ...      0.06207412 Eh     38.95 kcal/mol

In case the symmetry of your molecule has not been determined correctly
or in case you have a reason to use a different symmetry number we print 
out the resulting rotational entropy values for sn=1,12:

 non-linear molecules -----------------------------------
|  sn= 1 | S(rot)=       0.01588430 Eh      9.97 kcal/mol|
|  sn= 2 | S(rot)=       0.01522984 Eh      9.56 kcal/mol|
|  sn= 3 | S(rot)=       0.01484701 Eh      9.32 kcal/mol|
|  sn= 4 | S(rot)=       0.01457539 Eh      9.15 kcal/mol|
|  sn= 5 | S(rot)=       0.01436470 Eh      9.01 kcal/mol|
|  sn= 6 | S(rot)=       0.01419256 Eh      8.91 kcal/mol|
|  sn= 7 | S(rot)=       0.01404701 Eh      8.81 kcal/mol|
|  sn= 8 | S(rot)=       0.01392093 Eh      8.74 kcal/mol|
|  sn= 9 | S(rot)=       0.01380972 Eh      8.67 kcal/mol|
|  sn=10 | S(rot)=       0.01371024 Eh      8.60 kcal/mol|
|  sn=11 | S(rot)=       0.01362025 Eh      8.55 kcal/mol|
|  sn=12 | S(rot)=       0.01353810 Eh      8.50 kcal/mol|
 linear molecules ---------------------------------------
|  Dinfh | S(rot)=       0.00982529 Eh      6.17 kcal/mol|
|  Cinfv | S(rot)=       0.01047975 Eh      6.58 kcal/mol|
 --------------------------------------------------------


-------------------
GIBBS FREE ENERGY
-------------------

The Gibbs free energy is G = H - T*S

Total enthalpy                    ...  -1591.95373849 Eh 
Total entropy correction          ...     -0.06207412 Eh    -38.95 kcal/mol
-----------------------------------------------------------------------
Final Gibbs free energy         ...  -1592.01581261 Eh

For completeness - the Gibbs free energy minus the electronic energy
G-E(el)                           ...      0.16297325 Eh    102.27 kcal/mol


Maximum memory used throughout the entire PROP-calculation: 76.1 MB

Timings for individual modules:

Sum of individual times          ...      347.623 sec (=   5.794 min)
Startup calculation              ...        4.320 sec (=   0.072 min)   1.2 %
SCF iterations                   ...       10.496 sec (=   0.175 min)   3.0 %
Property integrals               ...      169.653 sec (=   2.828 min)  48.8 %
SCF Response                     ...      109.783 sec (=   1.830 min)  31.6 %
Property calculations            ...       53.370 sec (=   0.890 min)  15.4 %
================================================================================

cite the ECPs for Ru [Def2-ECP] as follows:
Ce-Yb(ecp-28): M. Dolg, H. Stoll, H.Preuss, J. Chem. Phys., 1989, 90, 1730-1734.
Y-Cd(ecp-28), Hf-Hg(ecp-46): D. Andrae,U. Haeussermann, M. Dolg, H. Stoll, H. Preuss, Theor. Chim. Acta, 1990, 77, 123-141.
In-Sb(ecp-28), Tl-Bi(ecp-46): B. Metz, H. Stoll, M. Dolg, J. Chem. Phys., 2000, 113, 2563-2569.
Te-Xe(ecp-28), Po-Rn(ecp-46): K. A. Peterson, D. Figgen, E. Goll, H. Stoll, M. Dolg, J. Chem. Phys., 2003, 119, 11113-11123.
Rb(ecp-28), Cs(ecp-46): T. Leininger, A. Nicklass, W. Kuechle, H. Stoll, M. Dolg, A. Bergner, Chem. Phys. Lett., 1996, 255, 274-280.
Sr(ecp-28), Ba(ecp-46): M. Kaupp, P. V. Schleyer, H. Stoll and H. Preuss, J. Chem. Phys., 1991, 94, 1360-1366.
La(ecp-46): M. Dolg, H. Stoll, A. Savin, H. Preuss, Theor. Chim. Acta, 1989, 75, 173-194.
Lu(ecp-28): X. Cao, M. Dolg, J. Chem. Phys., 2001, 115, 7348-7355.

ECP parameters for Ru [Def2-ECP] have been obtained from:
TURBOMOLE (7.0.2)

----- Orbital basis set information -----
Your calculation utilizes the basis: def2-SVP
   F. Weigend and R. Ahlrichs, Phys. Chem. Chem. Phys. 7, 3297 (2005).


--------------------------------
SUGGESTED CITATIONS FOR THIS RUN
--------------------------------

Below you find a list of papers that are relevant to this ORCA run
We neither can nor want to force you to cite these papers, but we appreciate if you do
You receive ORCA, which is the product of decades of hard work by many enthusiastic individuals, for free
The only thing we kindly ask in return is that you cite our papers,
We deeply appreciate it, if you show your appreciation for ORCA by not just citing the generic ORCA reference.

Please note that relegating all ORCA citations to the supporting information does *not* help us.
SI sections are not indexed - citations you put there will not count into any citation statistics
But we need these citations in order to attract the funding resources that allow us to do what we are doing

Therefore, if you are a happy ORCA user, please consider citing a few of the papers listed below in the main body of your paper

In addition to the list printed below, the program has created the file cli48.bibtex that contains the list in bibtex format
You can import this file easily into all common literature databanks and citation aid programs


List of essential papers. We consider these as the minimum necessary citations

  1. Neese,F.
     Software update: the ORCA program system, version 5.0
     WIRES Comput. Molec. Sci., 2022 12(1)e1606
     doi.org/10.1002/wcms.1606
  2. Grimme,S.; Hansen,A.; Ehlert,S.; Mewes,J.
     r2SCAN-3c: A 'Swiss army knife' composite electronic-structure method
     J. Chem. Phys., 2021 154 064103
     doi.org/10.1063/5.0040021

List of papers to cite with high priority. The work reported in these papers was absolutely
necessary for this run to complete.
Our perspective: the developers of density functionals and basis sets usually get cited in chemistry papers
Good! But without the algorithms to do something with them, the functionals or basis sets would not do anything.
Hence, in our opinion, the algorithm design and method developments papers are equally worthy of getting cited

  1. Neese,F.
     An improvement of the resolution of the identity approximation for the formation of the Coulomb matrix
     J. Comp. Chem., 2003 24(14)1740-1747
     doi.org/10.1002/jcc.10318
  2. Bykov,D.; Petrenko,T.; Izsak,R.; Kossmann,S.; Becker,U.; Valeev,E.; Neese,F.
     Efficient implementation of the analytic second derivatives of Hartree-Fock and hybrid DFT energies: a detailed analysis of different approximations
     Molec. Phys., 2015 113 1961-1977
     doi.org/10.1080/00268976.2015.1025114
  3. Neese,F.
     The SHARK Integral Generation and Digestion System
     J. Comp. Chem., 2022  1-16
     doi.org/10.1002/jcc.26942
  4. Lehtola,S.; Steigemann,C.; Oliveira,M.; Marques,M.
     Recent developments in Libxc - A comprehensive library of functionals for density functional theory
     Software X, 2018 7 
     doi.org/10.1016/j.softx.2017.11.002
  5. Caldeweyher,E.; Bannwarth,C.; Grimme,S.
     Extension of the D3 dispersion coefficient model
     J. Chem. Phys., 2017 147 034112
     doi.org/10.1063/1.4993215
  6. Caldeweyher,E.; Ehlert,S.; Hansen,A.; Neugebauer,H.; Spicher,S.; Bannwarth,C.; Grimme,S.
     A generally applicable atomic-charge dependent London dispersion correction
     J. Chem. Phys., 2019 150 154122
     doi.org/10.1063/1.5090222
  7. Caldeweyher,E.; Mewes,J.; Ehlert,S.; Grimme,S.
     Extension and evaluation of the D4 London-dispersion model for periodic systems
     Phys. Chem. Chem. Phys., 2020 22(16)8499-8512
     doi.org/10.1039/D0CP00502A
  8. Wittmann,L.; Gordiy,I.; Friede,M.; Helmich-Paris,B.; Grimme,S.; Hansen,A.; Bursch,M.
     Extension of the D3 and D4 London Dispersion Corrections to the full Actinides Series
     Phys. Chem. Chem. Phys., 2024 26(32)21379-21394
     doi.org/https://doi.org/10.1039/D4CP01514B 

List of suggested additional citations. These are papers that are important in the 'surrounding' of 
of this run, or papers that preceded the highly important papers. If you like your results we are grateful for a citation.

  1. Neese,F.
     The ORCA program system
     WIRES Comput. Molec. Sci., 2012 2(1)73-78
     doi.org/10.1002/wcms.81
  2. Neese,F.
     Software update: the ORCA program system, version 4.0
     WIRES Comput. Molec. Sci., 2018 8(1)1-6
     doi.org/10.1002/wcms.1327
  3. Neese,F.; Wennmohs,F.; Becker,U.; Riplinger,C.
     The ORCA quantum chemistry program package
     J. Chem. Phys., 2020 152 Art. No. L224108
     doi.org/10.1063/5.0004608

List of optional additional citations

  1. Neese,F.
     Approximate second-order SCF convergence for spin unrestricted wavefunctions
     Chem. Phys. Lett., 2000 325(1-3)93-98
     doi.org/10.1016/s0009-2614(00)00662-x
                             ****ORCA TERMINATED NORMALLY****
TOTAL RUN TIME: 0 days 0 hours 8 minutes 30 seconds 682 msec
7550.08user 547.42system 8:31.89elapsed 1581%CPU (0avgtext+0avgdata 745136maxresident)k
167027151inputs+9454070outputs (367906major+31048720minor)pagefaults 0swaps
