
                                 *****************
                                 * O   R   C   A *
                                 *****************

                                            #,                                       
                                            ###                                      
                                            ####                                     
                                            #####                                    
                                            ######                                   
                                           ########,                                 
                                     ,,################,,,,,                         
                               ,,#################################,,                 
                          ,,##########################################,,             
                       ,#########################################, ''#####,          
                    ,#############################################,,   '####,        
                  ,##################################################,,,,####,       
                ,###########''''           ''''###############################       
              ,#####''   ,,,,##########,,,,          '''####'''          '####       
            ,##' ,,,,###########################,,,                        '##       
           ' ,,###''''                  '''############,,,                           
         ,,##''                                '''############,,,,        ,,,,,,###''
      ,#''                                            '''#######################'''  
     '                                                          ''''####''''         
             ,#######,   #######,   ,#######,      ##                                
            ,#'     '#,  ##    ##  ,#'     '#,    #''#        ,####,   ,####,        
            ##       ##  ##   ,#'  ##            #'  '#       #'       #'  '#        
            ##       ##  #######   ##           ,######,      #####,   #    #        
            '#,     ,#'  ##    ##  '#,     ,#' ,#      #,     #,   #   #,  ,#        
             '#######'   ##     ##  '#######'  #'      '#     '####' # '####'        



                #########################################################
                #                        -***-                          #
                #          Department of theory and spectroscopy        #
                #                                                       #
                #                      Frank Neese                      #
                #                                                       #
                #     Directorship, Architecture, Infrastructure        #
                #                    SHARK, DRIVERS                     #
                #        Core code/Algorithms in most modules           #
                #                                                       #
                #        Max Planck Institute fuer Kohlenforschung      #
                #                Kaiser Wilhelm Platz 1                 #
                #                 D-45470 Muelheim/Ruhr                 #
                #                      Germany                          #
                #                                                       #
                #                  All rights reserved                  #
                #                        -***-                          #
                #########################################################


                         Program Version 6.0.1  -  RELEASE   -


 With contributions from (in alphabetic order):
[Max-Planck-Institut fuer Kohlenforschung]                               
  Daniel Aravena         : Magnetic Suceptibility                        
  Michael Atanasov       : Ab Initio Ligand Field Theory (pilot matlab implementation)
  Alexander A. Auer      : GIAO ZORA, VPT2 properties, NMR spectrum      
  Ute Becker             : All parallelization in ORCA, NUMFREQ, NUMCALC 
  Giovanni Bistoni       : ED, misc. LED, open-shell LED, HFLD           
  Martin Brehm           : Molecular dynamics                            
  Dmytro Bykov           : pre 5.0 version of the SCF Hessian            
  Marcos Casanova-Páez   : Triplet and SCS-CIS(D). UHF-(DLPNO)-IP/EA/STEOM-CCSD. UHF-CVS-IP/STEOM-CCSD   
  Vijay G. Chilkuri      : MRCI spin determinant printing, contributions to CSF-ICE 
  Pauline Colinet        : FMM embedding                                 
  Dipayan Datta          : RHF DLPNO-CCSD density                        
  Achintya Kumar Dutta   : EOM-CC, STEOM-CC                              
  Nicolas Foglia         : Exact transition moments, OPA infrastructure, MCD improvements    
  Dmitry Ganyushin       : Spin-Orbit,Spin-Spin,Magnetic field MRCI      
  Miquel Garcia-Rates    : C-PCM and meta-GGA Hessian, CCSD/C-PCM, Gaussian charge scheme 
  Tiago L. C. Gouveia    : GS-ROHF, GS-ROCIS                             
  Yang Guo               : DLPNO-NEVPT2, F12-NEVPT2, CIM, IAO-localization        
  Andreas Hansen         : Spin unrestricted coupled pair/coupled cluster methods 
  Ingolf Harden          : AUTO-CI MPn and infrastructure                
  Benjamin Helmich-Paris : MC-RPA, TRAH-(SCF,CASSCF), AVAS, COSX integrals, SCF dyn. polar. 
  Lee Huntington         : MR-EOM, pCC                                   
  Robert Izsak           : Overlap fitted RIJCOSX, COSX-SCS-MP3, EOM     
  Riya Kayal             : Wick's Theorem for AUTO-CI, AUTO-CI UHF-CCSDT 
  Emily Kempfer          : AUTO-CI, RHF CISDT and CCSDT                  
  Christian Kollmar      : KDIIS, OOCD, Brueckner-CCSD(T), CCSD density, CASPT2, CASPT2-K, improved NEVPT2 
  Axel Koslowski         : Symmetry handling                             
  Simone Kossmann        : meta-GGA functionals, TD-DFT gradient, OOMP2, (MP2 Hessian; deprecated post 5.0) 
  Lucas Lang             : DCDCAS                                        
  Marvin Lechner         : AUTO-CI (C++ implementation), FIC-MRCC        
  Spencer Leger          : CASSCF response                               
  Dagmar Lenk            : GEPOL surface, SMD, ORCA-2-JSON               
  Dimitrios Liakos       : Extrapolation schemes; Compound Job, initial MDCI parallelization 
  Dimitrios Manganas     : Further ROCIS development; embedding schemes. LFT, Crystal Embedding 
  Dimitrios Pantazis     : SARC Basis sets                               
  Anastasios Papadopoulos: AUTO-CI, single reference methods and gradients 
  Taras Petrenko         : pre 6.0 DFT Hessian and TD-DFT gradient, (ASA, deprecated), ECA, 1-Electron XAS/XES, NRVS 
  Peter Pinski           : DLPNO-MP2, DLPNO-MP2 Gradient                 
  Christoph Reimann      : Effective Core Potentials                     
  Marius Retegan         : Local ZFS, SOC                                
  Christoph Riplinger    : Optimizer, TS searches, QM/MM, DLPNO-CCSD(T), (RO)-DLPNO pert. Triples 
  Michael Roemelt        : Original ROCIS implementation                 
  Masaaki Saitow         : Open-shell DLPNO-CCSD energy and density      
  Barbara Sandhoefer     : DKH picture change effects                    
  Kantharuban Sivalingam : CASSCF convergence/infrastructure, NEVPT2 and variants, FIC-MRCI 
  Bernardo de Souza      : ESD, SOC TD-DFT                               
  Georgi L. Stoychev     : AutoAux, RI-MP2 NMR, DLPNO-MP2 response, X2C  
  Van Anh Tran           : RI-MP2 g-tensors                              
  Willem Van den Heuvel  : Paramagnetic NMR                              
  Zikuan Wang            : NOTCH, Electric field optimization            
  Frank Wennmohs         : Technical directorship and infrastructure     
  Hang Xu                : AUTO-CI-Response properties                   
                                                                         
[FACCTs GmbH]                                                            
  Markus Bursch, Miquel Garcia-Rates, Christoph Riplinger, Bernardo de Souza, Georgi L. Stoychev 
                                                                 
  APM, Basis sets (HGBS, AHGBS, def-TZVP (Ac-Lr), def2-XVPD (La-Lu)), CI-OPT, improved COSX, DLPNO-Multilevel,           
  DOCKER, DRACO, updates on ESD, GOAT, IRC, LR-CPCM, MBIS, meta-GGA TD-DFT gradient, ML-optimized integration grids, 
  MM, NACMEs, nearIR, NEB, NEB-TS, NL-DFT gradient (VV10), 2- and 3-layer-ONIOM, interface openCOSMO-RS, QMMM,   
  Crystal-QMMM, SF, symmetry and pop. for TD-DFT, r2SCAN hybrids, SOLVATOR                                   
                                                                         
[Other institutions]                                                     
  V. Asgeirsson          : NEB                                           
  Christoph Bannwarth    : sTDA-DFT, sTD-DFT, PBEh-3c, B97-3c, D3        
  Sebastian Ehlert       : rSCAN, r2SCAN, r2SCAN-3c, D4, dhf basis sets  
  Marvin Friede          : D4 for Fr, Ra, Ac-Lr                          
  Lars Goerigk           : TD-DFT with DH, B97 family of functionals     
  Stefan Grimme          : VdW corrections, initial TS optimization, DFT functionals, gCP, sTDA/sTD-DF 
  Waldemar Hujo          : DFT-NL                                        
  H. Jonsson             : NEB                                           
  Holger Kruse           : gCP                                           
  Marcel Mueller         : wB97X-3c, vDZP basis set                      
  Hagen Neugebauer       : wr2SCAN                                       
  Tobias Risthaus        : range-separated hybrid DFT                    
  Lukas Wittmann         : regularized MP2, r2SCAN double-hybrids, wr2SCAN        
                                                                         
We gratefully acknowledge several colleagues who have allowed us to      
interface, adapt or use parts of their codes:                            
  Ed Valeev, F. Pavosevic, A. Kumar             : LibInt (2-el integral package), F12 methods 
  Garnet Chan, S. Sharma, J. Yang, R. Olivares  : DMRG                   
  Ulf Ekstrom                                   : XCFun DFT Library      
  Mihaly Kallay                                 : mrcc  (arbitrary order and MRCC methods)
  Frank Weinhold                                : gennbo (NPA and NBO analysis)           
  Simon Mueller                                 : openCOSMO-RS                            
  Christopher J. Cramer and Donald G. Truhlar   : smd solvation model                     
  S Lehtola, MJT Oliveira, MAL Marques          : LibXC Library                           
  Liviu Ungur et al                             : ANISO software                          


 Your calculation uses the libint2 library for the computation of 2-el integrals
 For citations please refer to: http://libint.valeyev.net

 Your ORCA version has been built with support for libXC version: 6.2.2
 For citations please refer to: https://libxc.gitlab.io

 This ORCA versions uses:
   CBLAS   interface :  Fast vector & matrix operations
   LAPACKE interface :  Fast linear algebra routines
   SCALAPACK package :  Parallel linear algebra routines
   Shared memory     :  Shared parallel matrices
   BLAS/LAPACK       :  OpenBLAS 0.3.27  USE64BITINT DYNAMIC_ARCH NO_AFFINITY SkylakeX SINGLE_THREADED
        Core in use  :  SkylakeX
   Copyright (c) 2011-2014, The OpenBLAS Project


NOTE: MaxCore=1400 MB was set to SCF,MP2,MDCI,CIPSI,MRCI and CIS
      => If you want to overwrite this, your respective input block should be placed after the MaxCore statement
NOTE: MaxCore=1400 MB was set to SCF,MP2,MDCI,CIPSI,MRCI and CIS
      => If you want to overwrite this, your respective input block should be placed after the MaxCore statement
================================================================================

cite the ECPs for Ru [Def2-ECP] as follows:
Ce-Yb(ecp-28): M. Dolg, H. Stoll, H.Preuss, J. Chem. Phys., 1989, 90, 1730-1734.
Y-Cd(ecp-28), Hf-Hg(ecp-46): D. Andrae,U. Haeussermann, M. Dolg, H. Stoll, H. Preuss, Theor. Chim. Acta, 1990, 77, 123-141.
In-Sb(ecp-28), Tl-Bi(ecp-46): B. Metz, H. Stoll, M. Dolg, J. Chem. Phys., 2000, 113, 2563-2569.
Te-Xe(ecp-28), Po-Rn(ecp-46): K. A. Peterson, D. Figgen, E. Goll, H. Stoll, M. Dolg, J. Chem. Phys., 2003, 119, 11113-11123.
Rb(ecp-28), Cs(ecp-46): T. Leininger, A. Nicklass, W. Kuechle, H. Stoll, M. Dolg, A. Bergner, Chem. Phys. Lett., 1996, 255, 274-280.
Sr(ecp-28), Ba(ecp-46): M. Kaupp, P. V. Schleyer, H. Stoll and H. Preuss, J. Chem. Phys., 1991, 94, 1360-1366.
La(ecp-46): M. Dolg, H. Stoll, A. Savin, H. Preuss, Theor. Chim. Acta, 1989, 75, 173-194.
Lu(ecp-28): X. Cao, M. Dolg, J. Chem. Phys., 2001, 115, 7348-7355.

ECP parameters for Ru [Def2-ECP] have been obtained from:
TURBOMOLE (7.0.2)

----- Orbital basis set information -----
Your calculation utilizes the basis: def2-SVP
   F. Weigend and R. Ahlrichs, Phys. Chem. Chem. Phys. 7, 3297 (2005).



################################################################################


                                COMPOUND JOB MainJOB 
Basename: cli48_Compound_0

################################################################################

================================================================================
                                       INPUT FILE
================================================================================
NAME = cli48_Compound_0.inp
|  1> %maxcore 1400
|  2>  %pal nprocs 20 end
|  3>  * xyz 0 1
|  4>      Ru -1.05257500 0.04024900 -0.01038400
|  5>       O 0.97296800 -0.81118600 -0.60799100
|  6>       C 0.05460100 1.45929600 0.41704000
|  7>       H -0.29195300 2.39979500 0.85180400
|  8>       C 1.34500300 -2.18632500 -0.99847000
|  9>       H 2.05189400 -2.08232400 -1.83132100
| 10>       C 1.97107100 -2.90033500 0.18517800
| 11>       H 2.83232000 -2.35838400 0.58428500
| 12>       H 2.30794700 -3.89234300 -0.13245900
| 13>       H 1.23181500 -3.01287800 0.98266900
| 14>       C 0.08242600 -2.85548600 -1.49634800
| 15>       H -0.65141100 -2.94692800 -0.68819100
| 16>       H 0.33438900 -3.86424700 -1.83739000
| 17>       H -0.35842700 -2.30096800 -2.32770700
| 18>       C 1.93925200 0.13293800 -0.41623600
| 19>       C 3.28347600 -0.01685300 -0.73186500
| 20>       H 3.66896800 -0.93609400 -1.15442600
| 21>       C 4.15099400 1.04759300 -0.49493600
| 22>       H 5.20145400 0.93074100 -0.74399100
| 23>       C 3.69732100 2.24745500 0.05198900
| 24>       H 4.39113500 3.06238200 0.22983100
| 25>       C 2.35647400 2.39168900 0.36295200
| 26>       H 1.98081200 3.31969500 0.78480500
| 27>       C 1.45136300 1.34010300 0.13422200
| 28>      Cl -1.49774300 0.33987200 -2.26547500
| 29>      Cl -1.02868300 -1.36851200 1.83841900
| 30>       C -2.53145000 0.92619800 0.53211500
| 31>       O -3.45154400 1.52255400 0.88548000
| 32>  *
| 33> 
| 34>                          ****END OF INPUT****
================================================================================
NOTE: MaxCore=1400 MB was set to SCF,MP2,MDCI,CIPSI,MRCI and CIS
      => If you want to overwrite this, your respective input block should be placed after the MaxCore statement
================================================================================

cite the ECPs for Ru [Def2-ECP] as follows:
Ce-Yb(ecp-28): M. Dolg, H. Stoll, H.Preuss, J. Chem. Phys., 1989, 90, 1730-1734.
Y-Cd(ecp-28), Hf-Hg(ecp-46): D. Andrae,U. Haeussermann, M. Dolg, H. Stoll, H. Preuss, Theor. Chim. Acta, 1990, 77, 123-141.
In-Sb(ecp-28), Tl-Bi(ecp-46): B. Metz, H. Stoll, M. Dolg, J. Chem. Phys., 2000, 113, 2563-2569.
Te-Xe(ecp-28), Po-Rn(ecp-46): K. A. Peterson, D. Figgen, E. Goll, H. Stoll, M. Dolg, J. Chem. Phys., 2003, 119, 11113-11123.
Rb(ecp-28), Cs(ecp-46): T. Leininger, A. Nicklass, W. Kuechle, H. Stoll, M. Dolg, A. Bergner, Chem. Phys. Lett., 1996, 255, 274-280.
Sr(ecp-28), Ba(ecp-46): M. Kaupp, P. V. Schleyer, H. Stoll and H. Preuss, J. Chem. Phys., 1991, 94, 1360-1366.
La(ecp-46): M. Dolg, H. Stoll, A. Savin, H. Preuss, Theor. Chim. Acta, 1989, 75, 173-194.
Lu(ecp-28): X. Cao, M. Dolg, J. Chem. Phys., 2001, 115, 7348-7355.

ECP parameters for Ru [Def2-ECP] have been obtained from:
TURBOMOLE (7.0.2)

----- Orbital basis set information -----
Your calculation utilizes the basis: def2-SVP
   F. Weigend and R. Ahlrichs, Phys. Chem. Chem. Phys. 7, 3297 (2005).



################################################################################


                                COMPOUND JOB  1 
Basename: cli48_Compound_1
NOTE: please remember that MaxCore and PAL settings will be ignored.

################################################################################

================================================================================
                                       INPUT FILE
================================================================================
NAME = cli48_Compound_1.inp
|  1>     ! RKS r2scan-3c Opt MOREAD
|  2>     %geom
|  3>       maxiter 5
|  4>     end
|  5>     %scf
|  6>       maxiter 500
|  7>     end
|  8>     %moinp "restart.gbw"
|  9> 
| 10>                          ****END OF INPUT****
================================================================================
Your calculation utilizes the geometrical counterpoise correction gCP
Please cite in your paper:
H.Kruse, S. Grimme J.Chem.Phys., 136, (2012), 154101 
   

Your calculation utilizes the atom-pairwise dispersion correction
based on EEQ partial charges (D4)


================================================================================

cite the ECPs for Ru [Def2-ECP] as follows:
Ce-Yb(ecp-28): M. Dolg, H. Stoll, H.Preuss, J. Chem. Phys., 1989, 90, 1730-1734.
Y-Cd(ecp-28), Hf-Hg(ecp-46): D. Andrae,U. Haeussermann, M. Dolg, H. Stoll, H. Preuss, Theor. Chim. Acta, 1990, 77, 123-141.
In-Sb(ecp-28), Tl-Bi(ecp-46): B. Metz, H. Stoll, M. Dolg, J. Chem. Phys., 2000, 113, 2563-2569.
Te-Xe(ecp-28), Po-Rn(ecp-46): K. A. Peterson, D. Figgen, E. Goll, H. Stoll, M. Dolg, J. Chem. Phys., 2003, 119, 11113-11123.
Rb(ecp-28), Cs(ecp-46): T. Leininger, A. Nicklass, W. Kuechle, H. Stoll, M. Dolg, A. Bergner, Chem. Phys. Lett., 1996, 255, 274-280.
Sr(ecp-28), Ba(ecp-46): M. Kaupp, P. V. Schleyer, H. Stoll and H. Preuss, J. Chem. Phys., 1991, 94, 1360-1366.
La(ecp-46): M. Dolg, H. Stoll, A. Savin, H. Preuss, Theor. Chim. Acta, 1989, 75, 173-194.
Lu(ecp-28): X. Cao, M. Dolg, J. Chem. Phys., 2001, 115, 7348-7355.
Fr-Lr(ecp-60) K. Eichkorn, F. Weigend, O. Treutler, R. Ahlrichs, Theor. Chem. Acc. 1997, 97, 119.

ECP parameters for Ru [Def2-ECP] have been obtained from:
TURBOMOLE (7.0.2)

----- Orbital basis set information -----
Your calculation utilizes the basis: def2-mTZVPP
   Stefan Grimme, Andreas Hansen, Sebastian Ehlert, and Jan-Michael Mewes 
   J. Chem. Phys. 154, 064103 (2021). DOI: 10.1063/5.0040021

----- AuxJ basis set information -----
Your calculation utilizes the basis: def2-mTZVPP/J
   Stefan Grimme, Andreas Hansen, Sebastian Ehlert, and Jan-Michael Mewes 
   J. Chem. Phys. 154, 000000 (2021). DOI: 10.1063/5.0040021

================================================================================
                                        WARNINGS
                       Please study these warnings very carefully!
================================================================================



WARNING: SCAN, rSCAN, or r2SCAN functional requested.
  ===> : libXC variant has now been activated.




                       *****************************
                       * Geometry Optimization Run *
                       *****************************

Geometry optimization settings:
Update method            Update   .... BFGS
Choice of coordinates    CoordSys .... (2022) Redundant Internals
Initial Hessian          InHess   .... Almloef's Model
Max. no of cycles        MaxIter  .... 5

Convergence Tolerances:
Energy Change            TolE     ....  5.0000e-06 Eh
Max. Gradient            TolMAXG  ....  3.0000e-04 Eh/bohr
RMS Gradient             TolRMSG  ....  1.0000e-04 Eh/bohr
Max. Displacement        TolMAXD  ....  4.0000e-03 bohr
RMS Displacement         TolRMSD  ....  2.0000e-03 bohr
Strict Convergence                .... False

------------------------------------------------------------------------------
                        ORCA OPTIMIZATION COORDINATE SETUP
------------------------------------------------------------------------------

The optimization will be done in redundant internal coordinates (2022)
Making redundant internal coordinates   ...  (2022 redundants) done
Evaluating the initial hessian          ...  (Almloef) done
Evaluating the coordinates              ...  done
Calculating the B-matrix                .... done
Calculating the G-matrix                .... done
Diagonalizing the G-matrix              .... done
Small eigenvalue found = 1.397e-02
Small eigenvalue found = 2.975e-02
The first mode is                       ....   68
The number of degrees of freedom        ....   78

    -----------------------------------------------------------------
                    Redundant Internal Coordinates


    -----------------------------------------------------------------
         Definition                    Initial Value    Approx d2E/dq
    -----------------------------------------------------------------
      1. B(O   1,Ru  0)                  2.2770         0.217665   
      2. B(C   2,Ru  0)                  1.8499         1.167029   
      3. B(H   3,C   2)                  1.0925         0.356747   
      4. B(C   4,O   1)                  1.4771         0.406328   
      5. B(H   5,C   4)                  1.0973         0.350522   
      6. B(C   6,C   4)                  1.5175         0.391135   
      7. B(H   7,C   6)                  1.0930         0.356094   
      8. B(H   8,C   6)                  1.0947         0.353882   
      9. B(H   9,C   6)                  1.0932         0.355849   
     10. B(C  10,C   4)                  1.5132         0.397364   
     11. B(H  11,C  10)                  1.0954         0.352971   
     12. B(H  12,C  10)                  1.0943         0.354515   
     13. B(H  13,C  10)                  1.0922         0.357142   
     14. B(C  14,O   1)                  1.3645         0.614565   
     15. B(C  15,C  14)                  1.3889         0.627365   
     16. B(H  16,C  15)                  1.0827         0.369934   
     17. B(C  17,C  15)                  1.3935         0.616875   
     18. B(H  18,C  17)                  1.0859         0.365583   
     19. B(C  19,C  17)                  1.3945         0.614565   
     20. B(H  20,C  19)                  1.0849         0.366846   
     21. B(C  21,C  19)                  1.3840         0.638792   
     22. B(H  22,C  21)                  1.0864         0.364887   
     23. B(C  23,C  21)                  1.4062         0.588715   
     24. B(C  23,C  14)                  1.4136         0.572893   
     25. B(C  23,C   2)                  1.4301         0.539248   
     26. B(Cl 24,Ru  0)                  2.3181         0.469035   
     27. B(Cl 25,Ru  0)                  2.3245         0.458080   
     28. B(C  26,Ru  0)                  1.8073         1.364930   
     29. B(O  27,C  26)                  1.1520         1.341546   
     30. A(C   2,Ru  0,Cl 25)          105.9604         0.605470   
     31. A(O   1,Ru  0,Cl 25)           88.4518         0.440107   
     32. A(O   1,Ru  0,C  26)          171.8853         0.520666   
     33. A(O   1,Ru  0,C   2)           79.3432         0.505630   
     34. A(Cl 24,Ru  0,C  26)           94.1008         0.626980   
     35. A(C   2,Ru  0,C  26)           92.5422         0.723971   
     36. A(Cl 24,Ru  0,Cl 25)          148.6565         0.526580   
     37. A(C   2,Ru  0,Cl 24)          103.9196         0.608240   
     38. A(O   1,Ru  0,Cl 24)           87.9280         0.441990   
     39. A(Cl 25,Ru  0,C  26)           93.8278         0.624110   
     40. A(Ru  0,O   1,C  14)          109.5324         0.398435   
     41. A(Ru  0,O   1,C   4)          129.9061         0.370773   
     42. A(C   4,O   1,C  14)          120.1946         0.396839   
     43. A(H   3,C   2,C  23)          117.4034         0.344163   
     44. A(Ru  0,C   2,C  23)          118.3545         0.534566   
     45. A(Ru  0,C   2,H   3)          124.2240         0.439963   
     46. A(C   6,C   4,C  10)          113.1291         0.370119   
     47. A(H   5,C   4,C  10)          109.2497         0.326178   
     48. A(O   1,C   4,C   6)          109.6181         0.369218   
     49. A(O   1,C   4,C  10)          106.7690         0.370221   
     50. A(O   1,C   4,H   5)          105.9412         0.325417   
     51. A(H   5,C   4,C   6)          111.7664         0.325332   
     52. A(C   4,C   6,H   7)          112.1225         0.326177   
     53. A(H   8,C   6,H   9)          109.0539         0.289506   
     54. A(H   7,C   6,H   9)          108.5115         0.289789   
     55. A(C   4,C   6,H   9)          109.7825         0.326140   
     56. A(C   4,C   6,H   8)          109.0870         0.325843   
     57. A(H   7,C   6,H   8)          108.2260         0.289537   
     58. A(H  12,C  10,H  13)          108.8890         0.289752   
     59. A(H  11,C  10,H  13)          109.4829         0.289553   
     60. A(C   4,C  10,H  13)          111.2661         0.327185   
     61. A(H  11,C  10,H  12)          107.8922         0.289218   
     62. A(C   4,C  10,H  12)          108.5474         0.326787   
     63. A(C   4,C  10,H  11)          110.6787         0.326552   
     64. A(O   1,C  14,C  15)          125.3684         0.431459   
     65. A(C  15,C  14,C  23)          120.9728         0.428856   
     66. A(O   1,C  14,C  23)          113.6522         0.424491   
     67. A(H  16,C  15,C  17)          119.5557         0.354220   
     68. A(C  14,C  15,C  17)          118.7845         0.434594   
     69. A(C  14,C  15,H  16)          121.6599         0.355234   
     70. A(H  18,C  17,C  19)          119.8191         0.353286   
     71. A(C  15,C  17,C  19)          121.4269         0.432985   
     72. A(C  15,C  17,H  18)          118.7540         0.353510   
     73. A(C  17,C  19,H  20)          120.1674         0.353492   
     74. A(H  20,C  19,C  21)          120.2951         0.355817   
     75. A(C  17,C  19,C  21)          119.5373         0.435714   
     76. A(H  22,C  21,C  23)          118.6452         0.350615   
     77. A(C  19,C  21,C  23)          120.6053         0.432358   
     78. A(C  19,C  21,H  22)          120.7491         0.355494   
     79. A(C  14,C  23,C  21)          118.6724         0.424000   
     80. A(C   2,C  23,C  21)          122.2874         0.419443   
     81. A(C   2,C  23,C  14)          119.0308         0.417411   
     82. L(Ru  0,C  26,O  27,Cl 24, 2) 182.5534         0.651743   
     83. L(Ru  0,C  26,O  27,Cl 24, 1) 180.3538         0.651743   
     84. D(C  14,O   1,Ru  0,C   2)     -2.6093         0.001739   
     85. D(C   4,O   1,Ru  0,C  26)    170.2177         0.001739   
     86. D(C   4,O   1,Ru  0,C   2)    170.3034         0.001739   
     87. D(C  14,O   1,Ru  0,Cl 25)   -109.1674         0.001739   
     88. D(C  14,O   1,Ru  0,Cl 24)    101.9718         0.001739   
     89. D(C   4,O   1,Ru  0,Cl 25)     63.7453         0.001739   
     90. D(C   4,O   1,Ru  0,Cl 24)    -85.1154         0.001739   
     91. D(C  23,C   2,Ru  0,Cl 25)     87.7071         0.007580   
     92. D(C  23,C   2,Ru  0,O   1)      2.4343         0.007580   
     93. D(H   3,C   2,Ru  0,C  26)      0.8336         0.007580   
     94. D(C  23,C   2,Ru  0,Cl 24)    -82.7161         0.007580   
     95. D(H   3,C   2,Ru  0,O   1)   -179.1543         0.007580   
     96. D(H   3,C   2,Ru  0,Cl 25)    -93.8815         0.007580   
     97. D(H   3,C   2,Ru  0,Cl 24)     95.6953         0.007580   
     98. D(H   5,C   4,O   1,Ru  0)    139.4665         0.014088   
     99. D(C  10,C   4,O   1,Ru  0)     23.0964         0.014088   
    100. D(C   6,C   4,O   1,C  14)     72.4809         0.014088   
    101. D(C   6,C   4,O   1,Ru  0)    -99.7874         0.014088   
    102. D(H   5,C   4,O   1,C  14)    -48.2651         0.014088   
    103. D(H   8,C   6,C   4,C  10)     64.9568         0.012160   
    104. D(H   8,C   6,C   4,H   5)    -58.8626         0.012160   
    105. D(H   8,C   6,C   4,O   1)   -176.0102         0.012160   
    106. D(H   7,C   6,C   4,C  10)   -175.1801         0.012160   
    107. D(H   7,C   6,C   4,H   5)     61.0005         0.012160   
    108. D(H   7,C   6,C   4,O   1)    -56.1471         0.012160   
    109. D(H  12,C  10,C   4,H   5)     63.2850         0.012534   
    110. D(H  11,C  10,C   4,C   6)     56.3260         0.012534   
    111. D(H  12,C  10,C   4,O   1)    177.4310         0.012534   
    112. D(H  11,C  10,C   4,H   5)   -178.4850         0.012534   
    113. D(H  11,C  10,C   4,O   1)    -64.3390         0.012534   
    114. D(H  12,C  10,C   4,C   6)    -61.9040         0.012534   
    115. D(C  23,C  14,O   1,C   4)   -171.5372         0.030542   
    116. D(C  23,C  14,O   1,Ru  0)      2.1762         0.030542   
    117. D(C  15,C  14,O   1,C   4)      9.3916         0.030542   
    118. D(C  15,C  14,O   1,Ru  0)   -176.8950         0.030542   
    119. D(C  17,C  15,C  14,C  23)      0.0683         0.027275   
    120. D(C  17,C  15,C  14,O   1)    179.0760         0.027275   
    121. D(H  16,C  15,C  14,C  23)   -179.9598         0.027275   
    122. D(H  16,C  15,C  14,O   1)     -0.9521         0.027275   
    123. D(C  19,C  17,C  15,H  16)   -179.7840         0.026316   
    124. D(C  19,C  17,C  15,C  14)      0.1886         0.026316   
    125. D(H  18,C  17,C  15,H  16)      0.1648         0.026316   
    126. D(H  18,C  17,C  15,C  14)   -179.8626         0.026316   
    127. D(C  21,C  19,C  17,H  18)    179.7787         0.026108   
    128. D(C  21,C  19,C  17,C  15)     -0.2730         0.026108   
    129. D(H  20,C  19,C  17,H  18)     -0.0745         0.026108   
    130. D(H  20,C  19,C  17,C  15)    179.8738         0.026108   
    131. D(C  23,C  21,C  19,H  20)    179.9514         0.028344   
    132. D(C  23,C  21,C  19,C  17)      0.0984         0.028344   
    133. D(H  22,C  21,C  19,H  20)      0.1846         0.028344   
    134. D(H  22,C  21,C  19,C  17)   -179.6685         0.028344   
    135. D(C  14,C  23,C  21,C  19)      0.1495         0.023846   
    136. D(C   2,C  23,C  21,H  22)      1.0470         0.023846   
    137. D(C   2,C  23,C  21,C  19)   -178.7247         0.023846   
    138. D(C  21,C  23,C  14,C  15)     -0.2346         0.022524   
    139. D(C  21,C  23,C  14,O   1)   -179.3512         0.022524   
    140. D(C   2,C  23,C  14,C  15)    178.6769         0.022524   
    141. D(C   2,C  23,C  14,O   1)     -0.4397         0.022524   
    142. D(C  21,C  23,C   2,H   3)     -1.7602         0.019868   
    143. D(C  21,C  23,C   2,Ru  0)    176.7603         0.019868   
    144. D(C  14,C  23,C   2,H   3)    179.3695         0.019868   
    145. D(C  14,C  23,C  21,H  22)    179.9212         0.023846   
    146. D(C  14,C  23,C   2,Ru  0)     -2.1100         0.019868   
    -----------------------------------------------------------------

Number of atoms                         .... 28
Number of degrees of freedom            .... 146


         *************************************************************
         *                GEOMETRY OPTIMIZATION CYCLE   1            *
         *************************************************************
---------------------------------
CARTESIAN COORDINATES (ANGSTROEM)
---------------------------------
  Ru    -1.052575    0.040249   -0.010384
  O      0.972968   -0.811186   -0.607991
  C      0.054601    1.459296    0.417040
  H     -0.291953    2.399795    0.851804
  C      1.345003   -2.186325   -0.998470
  H      2.051894   -2.082324   -1.831321
  C      1.971071   -2.900335    0.185178
  H      2.832320   -2.358384    0.584285
  H      2.307947   -3.892343   -0.132459
  H      1.231815   -3.012878    0.982669
  C      0.082426   -2.855486   -1.496348
  H     -0.651411   -2.946928   -0.688191
  H      0.334389   -3.864247   -1.837390
  H     -0.358427   -2.300968   -2.327707
  C      1.939252    0.132938   -0.416236
  C      3.283476   -0.016853   -0.731865
  H      3.668968   -0.936094   -1.154426
  C      4.150994    1.047593   -0.494936
  H      5.201454    0.930741   -0.743991
  C      3.697321    2.247455    0.051989
  H      4.391135    3.062382    0.229831
  C      2.356474    2.391689    0.362952
  H      1.980812    3.319695    0.784805
  C      1.451363    1.340103    0.134222
  Cl    -1.497743    0.339872   -2.265475
  Cl    -1.028683   -1.368512    1.838419
  C     -2.531450    0.926198    0.532115
  O     -3.451544    1.522554    0.885480

----------------------------
CARTESIAN COORDINATES (A.U.)
----------------------------
  NO LB      ZA    FRAG     MASS         X           Y           Z
   0 Ru   16.0000*   0   101.070   -1.989078    0.076060   -0.019623
   1 O     8.0000    0    15.999    1.838643   -1.532919   -1.148936
   2 C     6.0000    0    12.011    0.103181    2.757670    0.788091
   3 H     1.0000    0     1.008   -0.551711    4.534955    1.609676
   4 C     6.0000    0    12.011    2.541687   -4.131555   -1.886835
   5 H     1.0000    0     1.008    3.877518   -3.935022   -3.460695
   6 C     6.0000    0    12.011    3.724784   -5.480839    0.349936
   7 H     1.0000    0     1.008    5.352309   -4.456700    1.104139
   8 H     1.0000    0     1.008    4.361388   -7.355462   -0.250311
   9 H     1.0000    0     1.008    2.327793   -5.693514    1.856975
  10 C     6.0000    0    12.011    0.155763   -5.396087   -2.827688
  11 H     1.0000    0     1.008   -1.230988   -5.568887   -1.300493
  12 H     1.0000    0     1.008    0.631904   -7.302369   -3.472164
  13 H     1.0000    0     1.008   -0.677329   -4.348199   -4.398729
  14 C     6.0000    0    12.011    3.664655    0.251216   -0.786572
  15 C     6.0000    0    12.011    6.204870   -0.031848   -1.383024
  16 H     1.0000    0     1.008    6.933345   -1.768961   -2.181549
  17 C     6.0000    0    12.011    7.844242    1.979664   -0.935293
  18 H     1.0000    0     1.008    9.829324    1.758846   -1.405939
  19 C     6.0000    0    12.011    6.986924    4.247074    0.098245
  20 H     1.0000    0     1.008    8.298043    5.787063    0.434318
  21 C     6.0000    0    12.011    4.453091    4.519637    0.685880
  22 H     1.0000    0     1.008    3.743192    6.273314    1.483067
  23 C     6.0000    0    12.011    2.742679    2.532428    0.253643
  24 Cl   17.0000    0    35.453   -2.830324    0.642265   -4.281127
  25 Cl   17.0000    0    35.453   -1.943929   -2.586113    3.474108
  26 C     6.0000    0    12.011   -4.783747    1.750261    1.005552
  27 O     8.0000    0    15.999   -6.522473    2.877210    1.673315
* core charge reduced due to ECP

--------------------------------
INTERNAL COORDINATES (ANGSTROEM)
--------------------------------
 Ru     0   0   0     0.000000000000     0.00000000     0.00000000
 O      1   0   0     2.277037577758     0.00000000     0.00000000
 C      1   2   0     1.849925500922    79.34315805     0.00000000
 H      3   1   2     1.092546465654   124.22403882   180.84573085
 C      2   1   3     1.477122594772   129.90610273   170.30341778
 H      5   2   1     1.097338544882   105.94123199   139.46654394
 C      5   2   1     1.517495966594   109.61814156   260.21255082
 H      7   5   2     1.093044886476   112.12253241   303.85285383
 H      7   5   2     1.094741327990   109.08703233   183.98977422
 H      7   5   2     1.093232480064   109.78248773    64.54574343
 C      5   2   1     1.513195171726   106.76896520    23.09635297
 H     11   5   2     1.095443343392   110.67874484   295.66098215
 H     11   5   2     1.094254885415   108.54738139   177.43095433
 H     11   5   2     1.092245103818   111.26614542    57.62886607
 C      2   1   3     1.364494366444   109.53239715   357.39069740
 C     15   2   1     1.388883426173   125.36840531   183.10495997
 H     16  15   2     1.082666105901   121.65988082   359.04792828
 C     16  15   2     1.393473400636   118.78445397   179.07598219
 H     18  16  15     1.085886271452   118.75397599   180.13736072
 C     18  16  15     1.394494519745   121.42694740     0.18858147
 H     20  18  16     1.084947767816   120.16738781   179.87376335
 C     20  18  16     1.383969693141   119.53730280   359.72698878
 H     22  20  18     1.086405554058   120.74911454   180.33152705
 C     22  20  18     1.406192181253   120.60529903     0.09840484
 Cl     1   2   3     2.318056062444    87.92796772   104.58114191
 Cl     1   2   3     2.324489388144    88.45179243   253.44189828
 C      1   2   3     1.807285827208   171.88534630   359.91425460
 O     27   1   3     1.151989700821   178.03083208     2.97911395

---------------------------
INTERNAL COORDINATES (A.U.)
---------------------------
 Ru     0   0   0     0.000000000000     0.00000000     0.00000000
 O      1   0   0     4.302977418610     0.00000000     0.00000000
 C      1   2   0     3.495852564899    79.34315805     0.00000000
 H      3   1   2     2.064613608670   124.22403882   180.84573085
 C      2   1   3     2.791357170347   129.90610273   170.30341778
 H      5   2   1     2.073669326022   105.94123199   139.46654394
 C      5   2   1     2.867651786192   109.61814156   260.21255082
 H      7   5   2     2.065555487522   112.12253241   303.85285383
 H      7   5   2     2.068761297386   109.08703233   183.98977422
 H      7   5   2     2.065909988028   109.78248773    64.54574343
 C      5   2   1     2.859524461734   106.76896520    23.09635297
 H     11   5   2     2.070087914238   110.67874484   295.66098215
 H     11   5   2     2.067842054139   108.54738139   177.43095433
 H     11   5   2     2.064044117332   111.26614542    57.62886607
 C      2   1   3     2.578520663857   109.53239715   357.39069740
 C     15   2   1     2.624609307409   125.36840531   183.10495997
 H     16  15   2     2.045942434631   121.65988082   359.04792828
 C     16  15   2     2.633283102107   118.78445397   179.07598219
 H     18  16  15     2.052027665630   118.75397599   180.13736072
 C     18  16  15     2.635212737572   121.42694740     0.18858147
 H     20  18  16     2.050254150781   120.16738781   179.87376335
 C     20  18  16     2.615323697684   119.53730280   359.72698878
 H     22  20  18     2.053008967541   120.74911454   180.33152705
 C     22  20  18     2.657318114229   120.60529903     0.09840484
 Cl     1   2   3     4.380491121095    87.92796772   104.58114191
 Cl     1   2   3     4.392648344798    88.45179243   253.44189828
 C      1   2   3     3.415275259140   171.88534630   359.91425460
 O     27   1   3     2.176945043649   178.03083208     2.97911395

---------------------
BASIS SET INFORMATION
---------------------
There are 5 groups of distinct atoms

 Group   1 Type Ru  : 7s7p5d contracted to 6s4p3d pattern {211111/4111/311}
 Group   2 Type O   : 11s6p2d contracted to 5s3p2d pattern {62111/411/11}
 Group   3 Type C   : 11s6p1d contracted to 5s3p1d pattern {62111/411/1}
 Group   4 Type H   : 4s1p contracted to 2s1p pattern {31/1}
 Group   5 Type Cl  : 14s9p2d contracted to 5s4p2d pattern {73211/6111/11}

Atom   0Ru   basis set group =>   1
Atom   1O    basis set group =>   2
Atom   2C    basis set group =>   3
Atom   3H    basis set group =>   4
Atom   4C    basis set group =>   3
Atom   5H    basis set group =>   4
Atom   6C    basis set group =>   3
Atom   7H    basis set group =>   4
Atom   8H    basis set group =>   4
Atom   9H    basis set group =>   4
Atom  10C    basis set group =>   3
Atom  11H    basis set group =>   4
Atom  12H    basis set group =>   4
Atom  13H    basis set group =>   4
Atom  14C    basis set group =>   3
Atom  15C    basis set group =>   3
Atom  16H    basis set group =>   4
Atom  17C    basis set group =>   3
Atom  18H    basis set group =>   4
Atom  19C    basis set group =>   3
Atom  20H    basis set group =>   4
Atom  21C    basis set group =>   3
Atom  22H    basis set group =>   4
Atom  23C    basis set group =>   3
Atom  24Cl   basis set group =>   5
Atom  25Cl   basis set group =>   5
Atom  26C    basis set group =>   3
Atom  27O    basis set group =>   2
---------------------------------
AUXILIARY/J BASIS SET INFORMATION
---------------------------------
There are 5 groups of distinct atoms

 Group   1 Type Ru  : 11s5p5d3f3g contracted to 8s5p5d2f3g pattern {41111111/11111/11111/21/111}
 Group   2 Type O   : 8s3p3d contracted to 6s3p3d pattern {311111/111/111}
 Group   3 Type C   : 8s3p3d contracted to 6s3p3d pattern {311111/111/111}
 Group   4 Type H   : 5s2p1d contracted to 3s1p1d pattern {311/2/1}
 Group   5 Type Cl  : 14s5p5d2f contracted to 8s4p3d1f pattern {71111111/2111/311/2}

Atom   0Ru   basis set group =>   1
Atom   1O    basis set group =>   2
Atom   2C    basis set group =>   3
Atom   3H    basis set group =>   4
Atom   4C    basis set group =>   3
Atom   5H    basis set group =>   4
Atom   6C    basis set group =>   3
Atom   7H    basis set group =>   4
Atom   8H    basis set group =>   4
Atom   9H    basis set group =>   4
Atom  10C    basis set group =>   3
Atom  11H    basis set group =>   4
Atom  12H    basis set group =>   4
Atom  13H    basis set group =>   4
Atom  14C    basis set group =>   3
Atom  15C    basis set group =>   3
Atom  16H    basis set group =>   4
Atom  17C    basis set group =>   3
Atom  18H    basis set group =>   4
Atom  19C    basis set group =>   3
Atom  20H    basis set group =>   4
Atom  21C    basis set group =>   3
Atom  22H    basis set group =>   4
Atom  23C    basis set group =>   3
Atom  24Cl   basis set group =>   5
Atom  25Cl   basis set group =>   5
Atom  26C    basis set group =>   3
Atom  27O    basis set group =>   2
-------------------------
ECP PARAMETER INFORMATION
-------------------------

 Group 1, Type Ru ECP Def2-ECP (replacing 28 core electrons, lmax=3)

Atom   0Ru   ECP group =>   1



           ************************************************************
           *        Program running with 20 parallel MPI-processes    *
           *              working on a common directory               *
           ************************************************************
------------------------------------------------------------------------------
                             ORCA STARTUP CALCULATIONS
                           -- RI-GTO INTEGRALS CHOSEN --
------------------------------------------------------------------------------
------------------------------------------------------------------------------
                   ___                                                        
                  /   \      - P O W E R E D   B Y -                         
                 /     \                                                     
                 |  |  |   _    _      __       _____    __    __             
                 |  |  |  | |  | |    /  \     |  _  \  |  |  /  |          
                  \  \/   | |  | |   /    \    | | | |  |  | /  /          
                 / \  \   | |__| |  /  /\  \   | |_| |  |  |/  /          
                |  |  |   |  __  | /  /__\  \  |    /   |      \           
                |  |  |   | |  | | |   __   |  |    \   |  |\   \          
                \     /   | |  | | |  |  |  |  | |\  \  |  | \   \       
                 \___/    |_|  |_| |__|  |__|  |_| \__\ |__|  \__/        
                                                                              
                      - O R C A' S   B I G   F R I E N D -                    
                                      &                                       
                       - I N T E G R A L  F E E D E R -                       
                                                                              
 v1 FN, 2020, v2 2021, v3 2022-2024                                           
------------------------------------------------------------------------------


----------------------
SHARK INTEGRAL PACKAGE
----------------------

Number of atoms                             ...     28
Number of basis functions                   ...    404
Number of shells                            ...    190
Maximum angular momentum                    ...      2
Integral batch strategy                     ... SHARK/LIBINT Hybrid
RI-J (if used) integral strategy            ... SPLIT-RIJ (Revised 2003 algorithm where possible)
Printlevel                                  ...      1
Contraction scheme used                     ... SEGMENTED contraction
Prescreening option                         ... SCHWARTZ
   Thresh                                   ... 2.500e-11
   Tcut                                     ... 2.500e-12
   Tpresel                                  ... 2.500e-12 
Coulomb Range Separation                    ... NOT USED
Exchange Range Separation                   ... NOT USED
Multipole approximations                    ... NOT USED
Finite Nucleus Model                        ... NOT USED
CABS basis                                  ... NOT available
Auxiliary Coulomb fitting basis             ... AVAILABLE
   # of basis functions in Aux-J            ...    695
   # of shells in Aux-J                     ...    271
   Maximum angular momentum in Aux-J        ...      4
Auxiliary J/K fitting basis                 ... NOT available
Auxiliary Correlation fitting basis         ... NOT available
Auxiliary 'external' fitting basis          ... NOT available

Checking pre-screening integrals            ... done (  0.0 sec) Dimension = 190
Check shell pair data                       ... done (  0.0 sec)
Shell pair information
Shell pair cut-off parameter TPreSel        ...   2.5e-12
Total number of shell pairs                 ...     18145
Shell pairs after pre-screening             ...     14276
Total number of primitive shell pairs       ...     67207
Primitive shell pairs kept                  ...     33969
          la=0 lb=0:   4145 shell pairs
          la=1 lb=0:   5275 shell pairs
          la=1 lb=1:   1699 shell pairs
          la=2 lb=0:   1789 shell pairs
          la=2 lb=1:   1151 shell pairs
          la=2 lb=2:    217 shell pairs

Calculating one electron integrals          ... done (  0.0 sec)
Calculating ECP integrals                   ... done (  0.5 sec)
Calculating RI/J V-Matrix + Cholesky decomp.... done (  0.0 sec)
Calculating Nuclear repulsion               ... done (  0.0 sec) ENN=   1533.292419211596 Eh

Diagonalization of the overlap matrix:
Smallest eigenvalue                        ... 2.296e-05
Time for diagonalization                   ...    0.026 sec
Threshold for overlap eigenvalues          ... 1.000e-07
Number of eigenvalues below threshold      ... 0
Time for construction of square roots      ...    0.014 sec
Total time needed                          ...    0.057 sec

-------------------
DFT GRID GENERATION
-------------------

General Integration Accuracy     IntAcc      ... 4.388
Radial Grid Type                 RadialGrid  ... OptM3 with GC (2021)
Angular Grid (max. ang.)         AngularGrid ... 4 (Lebedev-302)
Angular grid pruning method      GridPruning ... 4 (adaptive)
Weight generation scheme         WeightScheme... mBecke (2022)
Basis function cutoff            BFCut       ... 1.0000e-11
Integration weight cutoff        WCut        ... 1.0000e-14
Partially contracted basis set               ... off
Rotationally invariant grid construction     ... off
Angular grids for H and He will be reduced by one unit
Diffuse basis detected: some atoms will have their outermost
                        angular grid increased by 1.

Total number of grid points                  ...   141355
Total number of batches                      ...     2223
Average number of points per batch           ...       63
Average number of grid points per atom       ...     5048
Initializing property integral containers    ... done (  0.1 sec)

SHARK setup successfully completed in   2.3 seconds

Maximum memory used throughout the entire STARTUP-calculation: 48.7 MB


           ************************************************************
           *        Program running with 20 parallel MPI-processes    *
           *              working on a common directory               *
           ************************************************************
-------------------------------------------------------------------------------
                                 ORCA GUESS
                   Start orbitals & Density for SCF / CASSCF
-------------------------------------------------------------------------------

------------
SCF SETTINGS
------------
Hamiltonian:
 Density Functional     Method          .... DFT(GTOs)
  Functional kind                       .... Exchange
  Functional name                       .... Re-regularized SCAN exchange by Furness et al
  Functional family                     .... MGGA
  Functional refs                              
    [ 0] J. W. Furness, A. D. Kaplan, J. Ning, J. P. Perdew, and J. Sun.,  J. Phys. Chem. Lett. 11, 8208-8215 (2020), doi: 10.1021/acs.jpclett.0c02405
    [ 1] J. W. Furness, A. D. Kaplan, J. Ning, J. P. Perdew, and J. Sun.,  J. Phys. Chem. Lett. 11, 9248-9248 (2020), doi: 10.1021/acs.jpclett.0c03077
  Functional external parameters        .... 6
    Parameter  0 _c1        =  6.670000e-01 : c1 parameter        
    Parameter  1 _c2        =  8.000000e-01 : c2 parameter        
    Parameter  2 _d         =  1.240000e+00 : d parameter         
    Parameter  3 _k1        =  6.500000e-02 : k1 parameter        
    Parameter  4 _eta       =  1.000000e-03 : eta parameter       
    Parameter  5 _dp2       =  3.610000e-01 : dp2 parameter       
  Functional kind                       .... Correlation
  Functional name                       .... Re-regularized SCAN correlation by Furness et al
  Functional family                     .... MGGA
  Functional refs                              
    [ 0] J. W. Furness, A. D. Kaplan, J. Ning, J. P. Perdew, and J. Sun.,  J. Phys. Chem. Lett. 11, 8208-8215 (2020), doi: 10.1021/acs.jpclett.0c02405
    [ 1] J. W. Furness, A. D. Kaplan, J. Ning, J. P. Perdew, and J. Sun.,  J. Phys. Chem. Lett. 11, 9248-9248 (2020), doi: 10.1021/acs.jpclett.0c03077
  Functional external parameters        .... 1
    Parameter  0 _eta       =  1.000000e-03 : Regularization parameter
 Gradients option       PostSCFGGA      .... off
 RI-approximation to the Coulomb term is turned on
   Number of AuxJ basis functions       .... 695


General Settings:
 Integral files         IntName         .... cli48_Compound_1
 Hartree-Fock type      HFTyp           .... RHF
 Total Charge           Charge          ....    0
 Multiplicity           Mult            ....    1
 Number of Electrons    NEL             ....  144
 Basis Dimension        Dim             ....  404
 Nuclear Repulsion      ENuc            ....   1533.2924192116 Eh

Convergence Acceleration:
 AO-DIIS                CNVDIIS         .... on
   Start iteration      DIISMaxIt       ....    12
   Startup error        DIISStart       ....  0.200000
   # of expansion vecs  DIISMaxEq       ....     5
   Bias factor          DIISBfac        ....   1.050
   Max. coefficient     DIISMaxC        ....  10.000
 MO-DIIS                CNVKDIIS        .... off
 Trust-Rad. Augm. Hess. CNVTRAH         .... auto
   Auto Start mean grad. ratio tolernc. ....  1.125000
   Auto Start start iteration           ....     1
   Auto Start num. interpolation iter.  ....    10
   Max. Number of Micro iterations      ....    24
   Max. Number of Macro iterations      .... Maxiter - #DIIS iter
   Number of Davidson start vectors     ....     2
   Converg. threshold    (grad. norm)   ....   1.000e-05
   Grad. Scal. Fac. for Micro threshold ....   0.100
   Minimum threshold for Micro iter.    ....   1.000e-02
   NR start threshold (gradient norm)   ....   1.000e-04
   Initial trust radius                 ....   0.400
   Minimum AH scaling param. (alpha)    ....   1.000
   Maximum AH scaling param. (alpha)    .... 1000.000
   Quad. conv. algorithm                .... NR
   White noise on init. David. guess    .... on
   Maximum white noise                  ....   0.010
   Pseudo random numbers                .... off
   Inactive MOs                         .... canonical
   Orbital update algorithm             .... Taylor
   Preconditioner                       .... Diag
   Full preconditioner red. dimension   ....   250
   COSX micro iterations for RIJONX calc.... off
 SOSCF                  CNVSOSCF        .... on
   Start iteration      SOSCFMaxIt      ....   150
   Startup grad/error   SOSCFStart      ....  0.003300
   Hessian update       SOSCFHessUp     .... L-BFGS
 Level Shifting         CNVShift        .... on
   Level shift para.    LevelShift      ....    0.2500
   Turn off err/grad.   ShiftErr        ....    0.0010
 Zerner damping         CNVZerner       .... off
 Static damping         CNVDamp         .... on
   Fraction old density DampFac         ....    0.7000
   Max. Damping (<1)    DampMax         ....    0.9800
   Min. Damping (>=0)   DampMin         ....    0.0000
   Turn off err/grad.   DampErr         ....    0.1000

SCF Procedure:
 Maximum # iterations   MaxIter         ....   500
 SCF integral mode      SCFMode         .... Direct
   Integral package                     .... SHARK and LIBINT hybrid scheme
 Reset frequency        DirectResetFreq ....    20
 Integral Threshold     Thresh          ....  2.500e-11 Eh
 Primitive CutOff       TCut            ....  2.500e-12 Eh

Convergence Tolerance:
 Convergence Check Mode ConvCheckMode   .... Total+1el-Energy
 Convergence forced     ConvForced      .... 0
 Energy Change          TolE            ....  1.000e-08 Eh
 1-El. energy change                    ....  1.000e-05 Eh
 Orbital Gradient       TolG            ....  1.000e-05
 Orbital Rotation angle TolX            ....  1.000e-05
 DIIS Error             TolErr          ....  5.000e-07

---------------------
INITIAL GUESS: MOREAD
---------------------
Guess MOs are being read from file: restart.gbw
Input geometry compatible with but different from current geometry
Input basis set matches current basis set (good)
Occupation numbers will be reassigned to an Aufbau configuration
MOs were renormalized
MOs were reorthogonalized (Cholesky)
                      ------------------
                      INITIAL GUESS DONE (   0.2 sec)
                      ------------------
             **** ENERGY FILE WAS UPDATED (cli48_Compound_1.en.tmp) ****
Finished Guess after   1.6 sec
Maximum memory used throughout the entire GUESS-calculation: 28.6 MB


           ************************************************************
           *        Program running with 20 parallel MPI-processes    *
           *              working on a common directory               *
           ************************************************************

-------------------------------------------------------------------------------------------
                                      ORCA LEAN-SCF
                              memory conserving SCF solver
-------------------------------------------------------------------------------------------

----------------------------------------D-I-I-S--------------------------------------------
Iteration    Energy (Eh)           Delta-E    RMSDP     MaxDP     DIISErr   Damp  Time(sec)
-------------------------------------------------------------------------------------------
               ***  Starting incremental Fock matrix formation  ***
                              *** Initializing SOSCF ***
---------------------------------------S-O-S-C-F--------------------------------------
Iteration    Energy (Eh)           Delta-E    RMSDP     MaxDP     MaxGrad    Time(sec)
--------------------------------------------------------------------------------------
    1    -1592.1775396800926501     0.00e+00  9.00e-07  4.07e-05  2.03e-07     1.6
               *** Restarting incremental Fock matrix formation ***
    2    -1592.1775396801112947    -1.86e-11  2.05e-07  8.51e-06  7.14e-07     1.4
                  *** Gradient check signals convergence ***

               *****************************************************
               *                     SUCCESS                       *
               *           SCF CONVERGED AFTER   2 CYCLES          *
               *****************************************************

             **** ENERGY FILE WAS UPDATED (cli48_Compound_1.en.tmp) ****

----------------
TOTAL SCF ENERGY
----------------

Total Energy       :      -1592.17753968011129 Eh          -43325.35347 eV

Components:
Nuclear Repulsion  :       1533.29241921159564 Eh           41723.00788 eV
Electronic Energy  :      -3125.46995889170694 Eh          -85048.36136 eV
One Electron Energy:      -5270.17684804803139 Eh         -143408.80280 eV
Two Electron Energy:       2144.70688915632445 Eh           58360.44144 eV

Virial components:
Potential Energy   :      -3118.64926052537794 Eh          -84862.76072 eV
Kinetic Energy     :       1526.47172084526665 Eh           41537.40725 eV
Virial Ratio       :          2.04304424244326

DFT components:
N(Alpha)           :       72.000040069760 electrons
N(Beta)            :       72.000040069760 electrons
N(Total)           :      144.000080139520 electrons
E(X)               :     -142.698293117047 Eh       
E(C)               :       -5.014309308687 Eh       
E(XC)              :     -147.712602425734 Eh       

---------------
SCF CONVERGENCE
---------------

  Last Energy change         ...    1.8645e-11  Tolerance :   1.0000e-08
  Last MAX-Density change    ...    8.5075e-06  Tolerance :   1.0000e-07
  Last RMS-Density change    ...    2.0500e-07  Tolerance :   5.0000e-09
  Last DIIS Error            ...    1.6910e-06  Tolerance :   5.0000e-07
  Last Orbital Gradient      ...    7.1353e-07  Tolerance :   1.0000e-05
  Last Orbital Rotation      ...    1.7440e-06  Tolerance :   1.0000e-05


----------------
ORBITAL ENERGIES
----------------

  NO   OCC          E(Eh)            E(eV) 
   0   2.0000    -101.175243     -2753.1183 
   1   2.0000    -101.174336     -2753.0936 
   2   2.0000     -19.042527      -518.1735 
   3   2.0000     -19.024642      -517.6868 
   4   2.0000     -10.152035      -276.2509 
   5   2.0000     -10.137243      -275.8484 
   6   2.0000     -10.128906      -275.6215 
   7   2.0000     -10.094723      -274.6914 
   8   2.0000     -10.077306      -274.2174 
   9   2.0000     -10.074588      -274.1435 
  10   2.0000     -10.073362      -274.1101 
  11   2.0000     -10.070903      -274.0432 
  12   2.0000     -10.062460      -273.8135 
  13   2.0000     -10.044275      -273.3186 
  14   2.0000     -10.042629      -273.2738 
  15   2.0000      -9.330164      -253.8867 
  16   2.0000      -9.329213      -253.8608 
  17   2.0000      -7.073646      -192.4837 
  18   2.0000      -7.072780      -192.4601 
  19   2.0000      -7.068424      -192.3416 
  20   2.0000      -7.067437      -192.3147 
  21   2.0000      -7.067128      -192.3063 
  22   2.0000      -7.066133      -192.2792 
  23   2.0000      -3.024087       -82.2896 
  24   2.0000      -1.877340       -51.0850 
  25   2.0000      -1.873309       -50.9753 
  26   2.0000      -1.872390       -50.9503 
  27   2.0000      -1.092487       -29.7281 
  28   2.0000      -1.075959       -29.2783 
  29   2.0000      -0.860892       -23.4261 
  30   2.0000      -0.795581       -21.6489 
  31   2.0000      -0.772403       -21.0182 
  32   2.0000      -0.739576       -20.1249 
  33   2.0000      -0.733273       -19.9534 
  34   2.0000      -0.725630       -19.7454 
  35   2.0000      -0.682678       -18.5766 
  36   2.0000      -0.665709       -18.1149 
  37   2.0000      -0.635876       -17.3031 
  38   2.0000      -0.583428       -15.8759 
  39   2.0000      -0.573259       -15.5992 
  40   2.0000      -0.545446       -14.8423 
  41   2.0000      -0.530588       -14.4380 
  42   2.0000      -0.493883       -13.4392 
  43   2.0000      -0.481482       -13.1018 
  44   2.0000      -0.463914       -12.6237 
  45   2.0000      -0.452362       -12.3094 
  46   2.0000      -0.443932       -12.0800 
  47   2.0000      -0.434837       -11.8325 
  48   2.0000      -0.428380       -11.6568 
  49   2.0000      -0.424483       -11.5508 
  50   2.0000      -0.411936       -11.2093 
  51   2.0000      -0.406255       -11.0548 
  52   2.0000      -0.390300       -10.6206 
  53   2.0000      -0.385082       -10.4786 
  54   2.0000      -0.381327       -10.3764 
  55   2.0000      -0.375283       -10.2120 
  56   2.0000      -0.357397        -9.7253 
  57   2.0000      -0.357053        -9.7159 
  58   2.0000      -0.349101        -9.4995 
  59   2.0000      -0.342354        -9.3159 
  60   2.0000      -0.340348        -9.2613 
  61   2.0000      -0.334558        -9.1038 
  62   2.0000      -0.331215        -9.0128 
  63   2.0000      -0.300577        -8.1791 
  64   2.0000      -0.298652        -8.1267 
  65   2.0000      -0.274599        -7.4722 
  66   2.0000      -0.274377        -7.4662 
  67   2.0000      -0.272400        -7.4124 
  68   2.0000      -0.248051        -6.7498 
  69   2.0000      -0.244481        -6.6527 
  70   2.0000      -0.218892        -5.9564 
  71   2.0000      -0.213244        -5.8027 
  72   0.0000      -0.128188        -3.4882 
  73   0.0000      -0.110320        -3.0020 
  74   0.0000      -0.069253        -1.8845 
  75   0.0000      -0.055766        -1.5175 
  76   0.0000      -0.030288        -0.8242 
  77   0.0000      -0.022673        -0.6170 
  78   0.0000      -0.014058        -0.3825 
  79   0.0000       0.034669         0.9434 
  80   0.0000       0.043287         1.1779 
  81   0.0000       0.053846         1.4652 
  82   0.0000       0.058709         1.5976 
*Only the first 10 virtual orbitals were printed.

                    ********************************
                    * MULLIKEN POPULATION ANALYSIS *
                    ********************************

-----------------------
MULLIKEN ATOMIC CHARGES
-----------------------
   0 Ru:    0.106480
   1 O :   -0.091508
   2 C :   -0.104205
   3 H :    0.149401
   4 C :   -0.072744
   5 H :    0.153454
   6 C :   -0.418794
   7 H :    0.155061
   8 H :    0.159722
   9 H :    0.192840
  10 C :   -0.463733
  11 H :    0.181170
  12 H :    0.152841
  13 H :    0.193369
  14 C :    0.265101
  15 C :   -0.254616
  16 H :    0.153937
  17 C :   -0.123277
  18 H :    0.153777
  19 C :   -0.154250
  20 H :    0.153618
  21 C :   -0.205936
  22 H :    0.151248
  23 C :    0.012835
  24 Cl:   -0.368085
  25 Cl:   -0.381413
  26 C :    0.594406
  27 O :   -0.290701
Sum of atomic charges:    0.0000000

--------------------------------
MULLIKEN REDUCED ORBITAL CHARGES
--------------------------------
  0 Rus       :     2.671106  s :     2.671106
      pz      :     2.185711  p :     6.566367
      px      :     2.217365
      py      :     2.163291
      dz2     :     1.178635  d :     6.656047
      dxz     :     1.499652
      dyz     :     1.305966
      dx2y2   :     1.518972
      dxy     :     1.152822

  1 O s       :     3.658278  s :     3.658278
      pz      :     1.761021  p :     4.349380
      px      :     1.442312
      py      :     1.146048
      dz2     :     0.008353  d :     0.083850
      dxz     :     0.017922
      dyz     :     0.015413
      dx2y2   :     0.024219
      dxy     :     0.017942

  2 C s       :     3.156266  s :     3.156266
      pz      :     0.866144  p :     2.909413
      px      :     1.028470
      py      :     1.014799
      dz2     :     0.003199  d :     0.038526
      dxz     :     0.007060
      dyz     :     0.004825
      dx2y2   :     0.015493
      dxy     :     0.007950

  3 H s       :     0.831369  s :     0.831369
      pz      :     0.004819  p :     0.019229
      px      :     0.004353
      py      :     0.010058

  4 C s       :     3.230340  s :     3.230340
      pz      :     0.987803  p :     2.778209
      px      :     1.040928
      py      :     0.749478
      dz2     :     0.010138  d :     0.064196
      dxz     :     0.014028
      dyz     :     0.013185
      dx2y2   :     0.015368
      dxy     :     0.011476

  5 H s       :     0.829185  s :     0.829185
      pz      :     0.008264  p :     0.017360
      px      :     0.006827
      py      :     0.002270

  6 C s       :     3.305185  s :     3.305185
      pz      :     0.986725  p :     3.086937
      px      :     1.079818
      py      :     1.020395
      dz2     :     0.004210  d :     0.026672
      dxz     :     0.008476
      dyz     :     0.005351
      dx2y2   :     0.003982
      dxy     :     0.004653

  7 H s       :     0.826580  s :     0.826580
      pz      :     0.004733  p :     0.018358
      px      :     0.008254
      py      :     0.005371

  8 H s       :     0.822267  s :     0.822267
      pz      :     0.003929  p :     0.018011
      px      :     0.004390
      py      :     0.009692

  9 H s       :     0.788923  s :     0.788923
      pz      :     0.007723  p :     0.018236
      px      :     0.007074
      py      :     0.003440

 10 C s       :     3.351781  s :     3.351781
      pz      :     1.085062  p :     3.085063
      px      :     0.949024
      py      :     1.050976
      dz2     :     0.003410  d :     0.026889
      dxz     :     0.008728
      dyz     :     0.004123
      dx2y2   :     0.005365
      dxy     :     0.005262

 11 H s       :     0.800573  s :     0.800573
      pz      :     0.007694  p :     0.018258
      px      :     0.006916
      py      :     0.003648

 12 H s       :     0.829090  s :     0.829090
      pz      :     0.004453  p :     0.018069
      px      :     0.003689
      py      :     0.009927

 13 H s       :     0.788338  s :     0.788338
      pz      :     0.007795  p :     0.018293
      px      :     0.004821
      py      :     0.005677

 14 C s       :     3.121273  s :     3.121273
      pz      :     0.891167  p :     2.540565
      px      :     0.774442
      py      :     0.874956
      dz2     :     0.006854  d :     0.073062
      dxz     :     0.013510
      dyz     :     0.010510
      dx2y2   :     0.019105
      dxy     :     0.023082

 15 C s       :     3.239848  s :     3.239848
      pz      :     1.055822  p :     2.977882
      px      :     0.936532
      py      :     0.985528
      dz2     :     0.003406  d :     0.036885
      dxz     :     0.006584
      dyz     :     0.004235
      dx2y2   :     0.012829
      dxy     :     0.009831

 16 H s       :     0.825975  s :     0.825975
      pz      :     0.005723  p :     0.020088
      px      :     0.004378
      py      :     0.009988

 17 C s       :     3.200000  s :     3.200000
      pz      :     0.948906  p :     2.884238
      px      :     1.020053
      py      :     0.915280
      dz2     :     0.004287  d :     0.039039
      dxz     :     0.004061
      dyz     :     0.007283
      dx2y2   :     0.012265
      dxy     :     0.011142

 18 H s       :     0.827037  s :     0.827037
      pz      :     0.004274  p :     0.019185
      px      :     0.011648
      py      :     0.003263

 19 C s       :     3.188138  s :     3.188138
      pz      :     0.989737  p :     2.928091
      px      :     0.960641
      py      :     0.977713
      dz2     :     0.004140  d :     0.038021
      dxz     :     0.005894
      dyz     :     0.004681
      dx2y2   :     0.011188
      dxy     :     0.012118

 20 H s       :     0.827024  s :     0.827024
      pz      :     0.004267  p :     0.019358
      px      :     0.006781
      py      :     0.008310

 21 C s       :     3.235810  s :     3.235810
      pz      :     0.977550  p :     2.931379
      px      :     0.944328
      py      :     1.009501
      dz2     :     0.003270  d :     0.038747
      dxz     :     0.007654
      dyz     :     0.004015
      dx2y2   :     0.011113
      dxy     :     0.012696

 22 H s       :     0.829426  s :     0.829426
      pz      :     0.005208  p :     0.019326
      px      :     0.004116
      py      :     0.010002

 23 C s       :     3.241747  s :     3.241747
      pz      :     1.006430  p :     2.696913
      px      :     0.777867
      py      :     0.912617
      dz2     :     0.004755  d :     0.048504
      dxz     :     0.007129
      dyz     :     0.007161
      dx2y2   :     0.014857
      dxy     :     0.014603

 24 Cls       :     5.964960  s :     5.964960
      pz      :     3.565053  p :    11.372596
      px      :     3.916588
      py      :     3.890955
      dz2     :     0.010853  d :     0.030529
      dxz     :     0.008959
      dyz     :     0.008478
      dx2y2   :     0.001053
      dxy     :     0.001186

 25 Cls       :     5.964894  s :     5.964894
      pz      :     3.729401  p :    11.386250
      px      :     3.925742
      py      :     3.731106
      dz2     :     0.009921  d :     0.030269
      dxz     :     0.005218
      dyz     :     0.008263
      dx2y2   :     0.002461
      dxy     :     0.004406

 26 C s       :     3.174864  s :     3.174864
      pz      :     0.710798  p :     2.147609
      px      :     0.728712
      py      :     0.708099
      dz2     :     0.010790  d :     0.083121
      dxz     :     0.019566
      dyz     :     0.009676
      dx2y2   :     0.025384
      dxy     :     0.017705

 27 O s       :     3.876703  s :     3.876703
      pz      :     1.501685  p :     4.377823
      px      :     1.411723
      py      :     1.464415
      dz2     :     0.004103  d :     0.036175
      dxz     :     0.007992
      dyz     :     0.003708
      dx2y2   :     0.008756
      dxy     :     0.011615



                     *******************************
                     * LOEWDIN POPULATION ANALYSIS *
                     *******************************

----------------------
LOEWDIN ATOMIC CHARGES
----------------------
   0 Ru:   -0.392435
   1 O :   -0.681652
   2 C :   -0.031303
   3 H :    0.183364
   4 C :    0.086107
   5 H :    0.182645
   6 C :   -0.378882
   7 H :    0.167034
   8 H :    0.165404
   9 H :    0.180323
  10 C :   -0.371502
  11 H :    0.179166
  12 H :    0.168401
  13 H :    0.180991
  14 C :    0.248909
  15 C :   -0.155746
  16 H :    0.181851
  17 C :   -0.125232
  18 H :    0.174753
  19 C :   -0.171996
  20 H :    0.174744
  21 C :   -0.109361
  22 H :    0.179313
  23 C :   -0.055992
  24 Cl:   -0.036903
  25 Cl:   -0.049684
  26 C :    0.345729
  27 O :   -0.238044

-------------------------------
LOEWDIN REDUCED ORBITAL CHARGES
-------------------------------
  0 Rus       :     2.287825  s :     2.287825
      pz      :     2.407425  p :     6.961604
      px      :     2.263964
      py      :     2.290215
      dz2     :     1.325369  d :     7.143006
      dxz     :     1.545179
      dyz     :     1.398416
      dx2y2   :     1.560385
      dxy     :     1.313658

  1 O s       :     3.428922  s :     3.428922
      pz      :     1.748786  p :     4.657948
      px      :     1.544367
      py      :     1.364795
      dz2     :     0.065856  d :     0.594782
      dxz     :     0.090337
      dyz     :     0.112765
      dx2y2   :     0.158891
      dxy     :     0.166933

  2 C s       :     2.966016  s :     2.966016
      pz      :     0.878792  p :     2.990747
      px      :     1.045925
      py      :     1.066029
      dz2     :     0.005245  d :     0.074541
      dxz     :     0.012707
      dyz     :     0.008815
      dx2y2   :     0.032121
      dxy     :     0.015654

  3 H s       :     0.771018  s :     0.771018
      pz      :     0.010966  p :     0.045618
      px      :     0.009968
      py      :     0.024684

  4 C s       :     2.837532  s :     2.837532
      pz      :     1.052782  p :     2.944518
      px      :     1.068623
      py      :     0.823114
      dz2     :     0.019009  d :     0.131843
      dxz     :     0.030339
      dyz     :     0.026953
      dx2y2   :     0.031029
      dxy     :     0.024513

  5 H s       :     0.775942  s :     0.775942
      pz      :     0.019683  p :     0.041413
      px      :     0.016153
      py      :     0.005578

  6 C s       :     2.966881  s :     2.966881
      pz      :     1.101486  p :     3.351243
      px      :     1.142521
      py      :     1.107236
      dz2     :     0.009380  d :     0.060758
      dxz     :     0.019393
      dyz     :     0.011770
      dx2y2   :     0.009348
      dxy     :     0.010868

  7 H s       :     0.789070  s :     0.789070
      pz      :     0.010759  p :     0.043896
      px      :     0.020272
      py      :     0.012866

  8 H s       :     0.791251  s :     0.791251
      pz      :     0.009194  p :     0.043345
      px      :     0.010021
      py      :     0.024130

  9 H s       :     0.774769  s :     0.774769
      pz      :     0.019361  p :     0.044908
      px      :     0.017904
      py      :     0.007643

 10 C s       :     2.962643  s :     2.962643
      pz      :     1.149780  p :     3.348403
      px      :     1.077793
      py      :     1.120830
      dz2     :     0.007253  d :     0.060456
      dxz     :     0.019841
      dyz     :     0.009421
      dx2y2   :     0.012786
      dxy     :     0.011155

 11 H s       :     0.776434  s :     0.776434
      pz      :     0.019518  p :     0.044400
      px      :     0.016919
      py      :     0.007963

 12 H s       :     0.788324  s :     0.788324
      pz      :     0.010099  p :     0.043275
      px      :     0.008592
      py      :     0.024583

 13 H s       :     0.773958  s :     0.773958
      pz      :     0.020175  p :     0.045051
      px      :     0.011177
      py      :     0.013699

 14 C s       :     2.765418  s :     2.765418
      pz      :     0.910682  p :     2.830333
      px      :     0.987731
      py      :     0.931920
      dz2     :     0.014462  d :     0.155340
      dxz     :     0.025536
      dyz     :     0.021042
      dx2y2   :     0.043448
      dxy     :     0.050852

 15 C s       :     2.889616  s :     2.889616
      pz      :     1.042541  p :     3.188224
      px      :     1.046008
      py      :     1.099675
      dz2     :     0.005765  d :     0.077906
      dxz     :     0.012616
      dyz     :     0.008032
      dx2y2   :     0.027850
      dxy     :     0.023642

 16 H s       :     0.771920  s :     0.771920
      pz      :     0.013055  p :     0.046229
      px      :     0.009752
      py      :     0.023423

 17 C s       :     2.908376  s :     2.908376
      pz      :     0.964556  p :     3.134739
      px      :     1.096167
      py      :     1.074016
      dz2     :     0.007544  d :     0.082117
      dxz     :     0.007669
      dyz     :     0.014162
      dx2y2   :     0.028144
      dxy     :     0.024598

 18 H s       :     0.781099  s :     0.781099
      pz      :     0.009318  p :     0.044148
      px      :     0.027743
      py      :     0.007087

 19 C s       :     2.903663  s :     2.903663
      pz      :     1.011272  p :     3.187138
      px      :     1.092020
      py      :     1.083845
      dz2     :     0.007408  d :     0.081194
      dxz     :     0.011625
      dyz     :     0.008896
      dx2y2   :     0.025197
      dxy     :     0.028067

 20 H s       :     0.780706  s :     0.780706
      pz      :     0.009301  p :     0.044550
      px      :     0.015728
      py      :     0.019521

 21 C s       :     2.901423  s :     2.901423
      pz      :     0.970548  p :     3.126386
      px      :     1.083750
      py      :     1.072088
      dz2     :     0.005664  d :     0.081551
      dxz     :     0.014583
      dyz     :     0.007694
      dx2y2   :     0.025446
      dxy     :     0.028163

 22 H s       :     0.776269  s :     0.776269
      pz      :     0.011675  p :     0.044418
      px      :     0.009263
      py      :     0.023480

 23 C s       :     2.841621  s :     2.841621
      pz      :     1.005837  p :     3.114942
      px      :     1.064215
      py      :     1.044890
      dz2     :     0.008941  d :     0.099429
      dxz     :     0.013407
      dyz     :     0.013191
      dx2y2   :     0.031979
      dxy     :     0.031912

 24 Cls       :     5.710468  s :     5.710468
      pz      :     3.536115  p :    11.269366
      px      :     3.877212
      py      :     3.856039
      dz2     :     0.020073  d :     0.057068
      dxz     :     0.018013
      dyz     :     0.015396
      dx2y2   :     0.001776
      dxy     :     0.001810

 25 Cls       :     5.712521  s :     5.712521
      pz      :     3.701374  p :    11.280881
      px      :     3.886038
      py      :     3.693469
      dz2     :     0.017194  d :     0.056282
      dxz     :     0.010617
      dyz     :     0.014610
      dx2y2   :     0.004920
      dxy     :     0.008942

 26 C s       :     2.965459  s :     2.965459
      pz      :     0.751200  p :     2.518565
      px      :     0.956725
      py      :     0.810639
      dz2     :     0.021995  d :     0.170247
      dxz     :     0.039377
      dyz     :     0.018888
      dx2y2   :     0.048910
      dxy     :     0.041077

 27 O s       :     3.545205  s :     3.545205
      pz      :     1.495105  p :     4.516859
      px      :     1.525895
      py      :     1.495859
      dz2     :     0.022613  d :     0.175979
      dxz     :     0.038225
      dyz     :     0.018017
      dx2y2   :     0.040159
      dxy     :     0.056965



                      *****************************
                      * MAYER POPULATION ANALYSIS *
                      *****************************

  NA   - Mulliken gross atomic population
  ZA   - Total nuclear charge
  QA   - Mulliken gross atomic charge
  VA   - Mayer's total valence
  BVA  - Mayer's bonded valence
  FA   - Mayer's free valence

  ATOM       NA         ZA         QA         VA         BVA        FA
  0 Ru    15.8935    16.0000     0.1065     5.5911     5.5911     0.0000
  1 O      8.0915     8.0000    -0.0915     2.0309     2.0309     0.0000
  2 C      6.1042     6.0000    -0.1042     3.5343     3.5343    -0.0000
  3 H      0.8506     1.0000     0.1494     0.9587     0.9587    -0.0000
  4 C      6.0727     6.0000    -0.0727     3.6495     3.6495    -0.0000
  5 H      0.8465     1.0000     0.1535     0.9496     0.9496    -0.0000
  6 C      6.4188     6.0000    -0.4188     3.7093     3.7093     0.0000
  7 H      0.8449     1.0000     0.1551     0.9663     0.9663    -0.0000
  8 H      0.8403     1.0000     0.1597     0.9616     0.9616     0.0000
  9 H      0.8072     1.0000     0.1928     0.9572     0.9572    -0.0000
 10 C      6.4637     6.0000    -0.4637     3.6751     3.6751     0.0000
 11 H      0.8188     1.0000     0.1812     0.9630     0.9630     0.0000
 12 H      0.8472     1.0000     0.1528     0.9629     0.9629    -0.0000
 13 H      0.8066     1.0000     0.1934     0.9558     0.9558    -0.0000
 14 C      5.7349     6.0000     0.2651     3.9239     3.9239     0.0000
 15 C      6.2546     6.0000    -0.2546     3.7569     3.7569     0.0000
 16 H      0.8461     1.0000     0.1539     0.9675     0.9675     0.0000
 17 C      6.1233     6.0000    -0.1233     3.8005     3.8005     0.0000
 18 H      0.8462     1.0000     0.1538     0.9662     0.9662     0.0000
 19 C      6.1542     6.0000    -0.1542     3.8087     3.8087     0.0000
 20 H      0.8464     1.0000     0.1536     0.9681     0.9681     0.0000
[...]
 33:    623.65   0.000244    1.23  0.000122  (-0.005469 -0.008988 -0.003389)
 34:    629.45   0.003162   15.98  0.001567  ( 0.031913 -0.020338 -0.011637)
 35:    729.59   0.000076    0.38  0.000032  (-0.002012  0.001415  0.005125)
 36:    750.99   0.011778   59.52  0.004894  (-0.009699  0.021793 -0.065767)
 37:    795.58   0.001231    6.22  0.000483  ( 0.021262 -0.005339  0.001486)
 38:    818.39   0.002977   15.04  0.001135  (-0.005288 -0.032954 -0.004610)
 39:    834.74   0.004080   20.62  0.001525  ( 0.004038 -0.009030  0.037779)
 40:    862.30   0.001092    5.52  0.000395  ( 0.003066 -0.006181  0.018647)
 41:    870.13   0.002105   10.64  0.000755  (-0.020611  0.018128  0.001292)
 42:    898.64   0.005881   29.72  0.002042  ( 0.036029 -0.025136 -0.010594)
 43:    941.02   0.006975   35.25  0.002313  (-0.003436 -0.046340 -0.012410)
 44:    944.16   0.005775   29.18  0.001909  ( 0.003777  0.043520 -0.000624)
 45:    946.15   0.000706    3.57  0.000233  ( 0.007541  0.008072  0.010528)
 46:    952.77   0.001354    6.84  0.000443  ( 0.003775  0.018724  0.008864)
 47:    976.54   0.000012    0.06  0.000004  (-0.000985  0.001539  0.000742)
 48:   1063.83   0.001334    6.74  0.000391  ( 0.009834  0.016978  0.002519)
 49:   1121.42   0.016908   85.44  0.004705  ( 0.012435 -0.063678 -0.022259)
 50:   1146.14   0.007879   39.82  0.002145  ( 0.002598  0.044539  0.012440)
 51:   1161.97   0.001679    8.49  0.000451  ( 0.013499 -0.009399  0.013431)
 52:   1190.69   0.001671    8.44  0.000438  ( 0.010596 -0.013498 -0.011973)
 53:   1206.14   0.002367   11.96  0.000612  ( 0.002778  0.024373 -0.003273)
 54:   1212.14   0.001116    5.64  0.000287  ( 0.016402  0.001206 -0.004093)
 55:   1248.55   0.008517   43.04  0.002129  ( 0.015515  0.043172  0.004912)
 56:   1286.84   0.005209   26.33  0.001263  ( 0.019029 -0.027692 -0.011591)
 57:   1340.79   0.009690   48.97  0.002255  ( 0.044964  0.015176 -0.001785)
 58:   1354.13   0.001835    9.27  0.000423  ( 0.008666 -0.018559  0.001834)
 59:   1372.28   0.001807    9.13  0.000411  (-0.017523  0.007721  0.006651)
 60:   1379.53   0.001496    7.56  0.000338  ( 0.014090 -0.011634  0.002132)
 61:   1400.77   0.004643   23.46  0.001034  ( 0.021674  0.000646  0.023752)
 62:   1415.04   0.008011   40.48  0.001767  (-0.000548 -0.041805  0.004324)
 63:   1472.08   0.001068    5.40  0.000226  ( 0.008371  0.007982  0.009622)
 64:   1482.22   0.001364    6.89  0.000287  (-0.014723  0.004054  0.007340)
 65:   1486.67   0.007446   37.63  0.001563  ( 0.025342  0.030344 -0.000175)
 66:   1489.28   0.002141   10.82  0.000449  (-0.001277  0.010816  0.018168)
 67:   1500.39   0.007203   36.40  0.001498  ( 0.016953  0.034674  0.002915)
 68:   1511.83   0.004192   21.18  0.000865  (-0.001064 -0.025997 -0.013720)
 69:   1605.85   0.002782   14.06  0.000541  ( 0.005870  0.021664  0.006063)
 70:   1626.76   0.012526   63.30  0.002403  ( 0.046673  0.013839 -0.005740)
 71:   2070.24   0.187004  945.04  0.028189  (-0.151779  0.057432  0.043048)
 72:   3022.02   0.001154    5.83  0.000119  ( 0.007217  0.005516  0.006051)
 73:   3027.29   0.002484   12.55  0.000256  (-0.008722  0.013320 -0.001596)
 74:   3037.09   0.002598   13.13  0.000267  (-0.009757 -0.000747  0.013086)
 75:   3107.36   0.001136    5.74  0.000114  (-0.006969  0.006096  0.005324)
 76:   3109.29   0.000819    4.14  0.000082  (-0.004614  0.006840  0.003756)
 77:   3114.67   0.002894   14.63  0.000290  ( 0.001314  0.014000  0.009605)
 78:   3129.17   0.000643    3.25  0.000064  ( 0.007237  0.003220 -0.001156)
 79:   3133.51   0.000503    2.54  0.000050  ( 0.000433  0.003210 -0.006293)
 80:   3172.33   0.000118    0.60  0.000012  (-0.000946  0.003052  0.001178)
 81:   3179.13   0.000426    2.15  0.000042  ( 0.004231 -0.004047 -0.002752)
 82:   3195.45   0.001769    8.94  0.000173  ( 0.009240  0.009206  0.001633)
 83:   3213.65   0.000443    2.24  0.000043  ( 0.003971 -0.004886 -0.001830)

* The epsilon (eps) is given for a Dirac delta lineshape.
** The dipole moment derivative (T) already includes vibrational overlap.

The first frequency considered to be a vibration is 6
The total number of vibrations considered is 78


--------------------------
THERMOCHEMISTRY AT 298.15K
--------------------------

Temperature         ...   298.15 K
Pressure            ...     1.00 atm
Total Mass          ...   348.19 AMU
Quasi RRHO          ...     True
Cut-Off Frequency   ...     1.00 cm^-1

Throughout the following assumptions are being made:
  (1) The electronic state is orbitally nondegenerate
  (2) There are no thermally accessible electronically excited states
  (3) Hindered rotations indicated by low frequency modes are not
      treated as such but are treated as vibrations and this may
      cause some error
  (4) All equations used are the standard statistical mechanics
      equations for an ideal gas
  (5) All vibrations are strictly harmonic

freq.      49.26  E(vib)   ...       0.52 
freq.      75.84  E(vib)   ...       0.49 
freq.      79.96  E(vib)   ...       0.49 
freq.      83.07  E(vib)   ...       0.48 
freq.     103.99  E(vib)   ...       0.46 
freq.     110.74  E(vib)   ...       0.45 
freq.     115.63  E(vib)   ...       0.44 
freq.     133.18  E(vib)   ...       0.42 
freq.     146.54  E(vib)   ...       0.41 
freq.     154.85  E(vib)   ...       0.40 
freq.     209.96  E(vib)   ...       0.34 
freq.     224.50  E(vib)   ...       0.33 
freq.     234.79  E(vib)   ...       0.32 
freq.     245.66  E(vib)   ...       0.31 
freq.     280.92  E(vib)   ...       0.28 
freq.     313.59  E(vib)   ...       0.25 
freq.     328.32  E(vib)   ...       0.24 
freq.     355.76  E(vib)   ...       0.22 
freq.     372.80  E(vib)   ...       0.21 
freq.     386.32  E(vib)   ...       0.20 
freq.     445.71  E(vib)   ...       0.17 
freq.     454.93  E(vib)   ...       0.16 
freq.     495.10  E(vib)   ...       0.14 
freq.     543.71  E(vib)   ...       0.12 
freq.     550.20  E(vib)   ...       0.12 
freq.     567.16  E(vib)   ...       0.11 
freq.     569.28  E(vib)   ...       0.11 
freq.     623.65  E(vib)   ...       0.09 
freq.     629.45  E(vib)   ...       0.09 
freq.     729.59  E(vib)   ...       0.06 
freq.     750.99  E(vib)   ...       0.06 
freq.     795.58  E(vib)   ...       0.05 
freq.     818.39  E(vib)   ...       0.05 
freq.     834.74  E(vib)   ...       0.04 
freq.     862.30  E(vib)   ...       0.04 
freq.     870.13  E(vib)   ...       0.04 
freq.     898.64  E(vib)   ...       0.03 
freq.     941.02  E(vib)   ...       0.03 
freq.     944.16  E(vib)   ...       0.03 
freq.     946.15  E(vib)   ...       0.03 
freq.     952.77  E(vib)   ...       0.03 
freq.     976.54  E(vib)   ...       0.03 
freq.    1063.83  E(vib)   ...       0.02 
freq.    1121.42  E(vib)   ...       0.01 
freq.    1146.14  E(vib)   ...       0.01 
freq.    1161.97  E(vib)   ...       0.01 
freq.    1190.69  E(vib)   ...       0.01 
freq.    1206.14  E(vib)   ...       0.01 
freq.    1212.14  E(vib)   ...       0.01 
freq.    1248.55  E(vib)   ...       0.01 
freq.    1286.84  E(vib)   ...       0.01 
freq.    1340.79  E(vib)   ...       0.01 
freq.    1354.13  E(vib)   ...       0.01 
freq.    1372.28  E(vib)   ...       0.01 
freq.    1379.53  E(vib)   ...       0.01 
freq.    1400.77  E(vib)   ...       0.00 
freq.    1415.04  E(vib)   ...       0.00 
freq.    1472.08  E(vib)   ...       0.00 
freq.    1482.22  E(vib)   ...       0.00 
freq.    1486.67  E(vib)   ...       0.00 
freq.    1489.28  E(vib)   ...       0.00 
freq.    1500.39  E(vib)   ...       0.00 
freq.    1511.83  E(vib)   ...       0.00 
freq.    1605.85  E(vib)   ...       0.00 
freq.    1626.76  E(vib)   ...       0.00 
freq.    2070.24  E(vib)   ...       0.00 
freq.    3022.02  E(vib)   ...       0.00 
freq.    3027.29  E(vib)   ...       0.00 
freq.    3037.09  E(vib)   ...       0.00 
freq.    3107.36  E(vib)   ...       0.00 
freq.    3109.29  E(vib)   ...       0.00 
freq.    3114.67  E(vib)   ...       0.00 
freq.    3129.17  E(vib)   ...       0.00 
freq.    3133.51  E(vib)   ...       0.00 
freq.    3172.33  E(vib)   ...       0.00 
freq.    3179.13  E(vib)   ...       0.00 
freq.    3195.45  E(vib)   ...       0.00 
freq.    3213.65  E(vib)   ...       0.00 

------------
INNER ENERGY
------------

The inner energy is: U= E(el) + E(ZPE) + E(vib) + E(rot) + E(trans)
    E(el)   - is the total energy from the electronic structure calculation
              = E(kin-el) + E(nuc-el) + E(el-el) + E(nuc-nuc)
    E(ZPE)  - the the zero temperature vibrational energy from the frequency calculation
    E(vib)  - the the finite temperature correction to E(ZPE) due to population
              of excited vibrational states
    E(rot)  - is the rotational thermal energy
    E(trans)- is the translational thermal energy

Summary of contributions to the inner energy U:
Electronic energy                ...  -1592.17880045 Eh
Zero point energy                ...      0.20684029 Eh     129.79 kcal/mol
Thermal vibrational correction   ...      0.01443802 Eh       9.06 kcal/mol
Thermal rotational correction    ...      0.00141627 Eh       0.89 kcal/mol
Thermal translational correction ...      0.00141627 Eh       0.89 kcal/mol
-----------------------------------------------------------------------
Total thermal energy                  -1591.95468960 Eh


Summary of corrections to the electronic energy:
(perhaps to be used in another calculation)
Total thermal correction                  0.01727056 Eh      10.84 kcal/mol
Non-thermal (ZPE) correction              0.20684029 Eh     129.79 kcal/mol
-----------------------------------------------------------------------
Total correction                          0.22411085 Eh     140.63 kcal/mol


--------
ENTHALPY
--------

The enthalpy is H = U + kB*T
                kB is Boltzmann's constant
Total thermal energy              ...  -1591.95468960 Eh 
Thermal Enthalpy correction       ...      0.00094421 Eh       0.59 kcal/mol
-----------------------------------------------------------------------
Total Enthalpy                    ...  -1591.95374539 Eh


Note: Only C1 symmetry has been detected, increase convergence thresholds 
      if your molecule has a higher symmetry. Symmetry factor of 1.0 is   
      used for the rotational entropy correction. 
 

Note: Rotational entropy computed according to Herzberg 
Infrared and Raman Spectra, Chapter V,1, Van Nostrand Reinhold, 1945 
Point Group:  C1, Symmetry Number:   1  
Rotational constants in cm-1:     0.016130     0.009970     0.008519 

Vibrational entropy computed according to the QRRHO of S. Grimme
Chem.Eur.J. 2012 18 9955 using a reference frequency of 100.0 cm-1


-------
ENTROPY
-------

The entropy contributions are T*S = T*(S(el)+S(vib)+S(rot)+S(trans))
     S(el)   - electronic entropy
     S(vib)  - vibrational entropy
     S(rot)  - rotational entropy
     S(trans)- translational entropy
The entropies will be listed as multiplied by the temperature to get
units of energy

Electronic entropy                ...      0.00000000 Eh      0.00 kcal/mol
Vibrational entropy               ...      0.02554656 Eh     16.03 kcal/mol
Rotational entropy                ...      0.01588436 Eh      9.97 kcal/mol
Translational entropy             ...      0.02063816 Eh     12.95 kcal/mol
-----------------------------------------------------------------------
Final entropy term                ...      0.06206908 Eh     38.95 kcal/mol

In case the symmetry of your molecule has not been determined correctly
or in case you have a reason to use a different symmetry number we print 
out the resulting rotational entropy values for sn=1,12:

 non-linear molecules -----------------------------------
|  sn= 1 | S(rot)=       0.01588436 Eh      9.97 kcal/mol|
|  sn= 2 | S(rot)=       0.01522991 Eh      9.56 kcal/mol|
|  sn= 3 | S(rot)=       0.01484707 Eh      9.32 kcal/mol|
|  sn= 4 | S(rot)=       0.01457545 Eh      9.15 kcal/mol|
|  sn= 5 | S(rot)=       0.01436476 Eh      9.01 kcal/mol|
|  sn= 6 | S(rot)=       0.01419262 Eh      8.91 kcal/mol|
|  sn= 7 | S(rot)=       0.01404707 Eh      8.81 kcal/mol|
|  sn= 8 | S(rot)=       0.01392099 Eh      8.74 kcal/mol|
|  sn= 9 | S(rot)=       0.01380979 Eh      8.67 kcal/mol|
|  sn=10 | S(rot)=       0.01371031 Eh      8.60 kcal/mol|
|  sn=11 | S(rot)=       0.01362032 Eh      8.55 kcal/mol|
|  sn=12 | S(rot)=       0.01353816 Eh      8.50 kcal/mol|
 linear molecules ---------------------------------------
|  Dinfh | S(rot)=       0.00982522 Eh      6.17 kcal/mol|
|  Cinfv | S(rot)=       0.01047967 Eh      6.58 kcal/mol|
 --------------------------------------------------------


-------------------
GIBBS FREE ENERGY
-------------------

The Gibbs free energy is G = H - T*S

Total enthalpy                    ...  -1591.95374539 Eh 
Total entropy correction          ...     -0.06206908 Eh    -38.95 kcal/mol
-----------------------------------------------------------------------
Final Gibbs free energy         ...  -1592.01581447 Eh

For completeness - the Gibbs free energy minus the electronic energy
G-E(el)                           ...      0.16298599 Eh    102.28 kcal/mol


Maximum memory used throughout the entire PROP-calculation: 75.8 MB

Timings for individual modules:

Sum of individual times          ...      343.202 sec (=   5.720 min)
Startup calculation              ...        4.017 sec (=   0.067 min)   1.2 %
SCF iterations                   ...        8.259 sec (=   0.138 min)   2.4 %
Property integrals               ...      169.365 sec (=   2.823 min)  49.3 %
SCF Response                     ...      108.799 sec (=   1.813 min)  31.7 %
Property calculations            ...       52.762 sec (=   0.879 min)  15.4 %
================================================================================

cite the ECPs for Ru [Def2-ECP] as follows:
Ce-Yb(ecp-28): M. Dolg, H. Stoll, H.Preuss, J. Chem. Phys., 1989, 90, 1730-1734.
Y-Cd(ecp-28), Hf-Hg(ecp-46): D. Andrae,U. Haeussermann, M. Dolg, H. Stoll, H. Preuss, Theor. Chim. Acta, 1990, 77, 123-141.
In-Sb(ecp-28), Tl-Bi(ecp-46): B. Metz, H. Stoll, M. Dolg, J. Chem. Phys., 2000, 113, 2563-2569.
Te-Xe(ecp-28), Po-Rn(ecp-46): K. A. Peterson, D. Figgen, E. Goll, H. Stoll, M. Dolg, J. Chem. Phys., 2003, 119, 11113-11123.
Rb(ecp-28), Cs(ecp-46): T. Leininger, A. Nicklass, W. Kuechle, H. Stoll, M. Dolg, A. Bergner, Chem. Phys. Lett., 1996, 255, 274-280.
Sr(ecp-28), Ba(ecp-46): M. Kaupp, P. V. Schleyer, H. Stoll and H. Preuss, J. Chem. Phys., 1991, 94, 1360-1366.
La(ecp-46): M. Dolg, H. Stoll, A. Savin, H. Preuss, Theor. Chim. Acta, 1989, 75, 173-194.
Lu(ecp-28): X. Cao, M. Dolg, J. Chem. Phys., 2001, 115, 7348-7355.

ECP parameters for Ru [Def2-ECP] have been obtained from:
TURBOMOLE (7.0.2)

----- Orbital basis set information -----
Your calculation utilizes the basis: def2-SVP
   F. Weigend and R. Ahlrichs, Phys. Chem. Chem. Phys. 7, 3297 (2005).


--------------------------------
SUGGESTED CITATIONS FOR THIS RUN
--------------------------------

Below you find a list of papers that are relevant to this ORCA run
We neither can nor want to force you to cite these papers, but we appreciate if you do
You receive ORCA, which is the product of decades of hard work by many enthusiastic individuals, for free
The only thing we kindly ask in return is that you cite our papers,
We deeply appreciate it, if you show your appreciation for ORCA by not just citing the generic ORCA reference.

Please note that relegating all ORCA citations to the supporting information does *not* help us.
SI sections are not indexed - citations you put there will not count into any citation statistics
But we need these citations in order to attract the funding resources that allow us to do what we are doing

Therefore, if you are a happy ORCA user, please consider citing a few of the papers listed below in the main body of your paper

In addition to the list printed below, the program has created the file cli48.bibtex that contains the list in bibtex format
You can import this file easily into all common literature databanks and citation aid programs


List of essential papers. We consider these as the minimum necessary citations

  1. Neese,F.
     Software update: the ORCA program system, version 5.0
     WIRES Comput. Molec. Sci., 2022 12(1)e1606
     doi.org/10.1002/wcms.1606
  2. Grimme,S.; Hansen,A.; Ehlert,S.; Mewes,J.
     r2SCAN-3c: A 'Swiss army knife' composite electronic-structure method
     J. Chem. Phys., 2021 154 064103
     doi.org/10.1063/5.0040021

List of papers to cite with high priority. The work reported in these papers was absolutely
necessary for this run to complete.
Our perspective: the developers of density functionals and basis sets usually get cited in chemistry papers
Good! But without the algorithms to do something with them, the functionals or basis sets would not do anything.
Hence, in our opinion, the algorithm design and method developments papers are equally worthy of getting cited

  1. Neese,F.
     An improvement of the resolution of the identity approximation for the formation of the Coulomb matrix
     J. Comp. Chem., 2003 24(14)1740-1747
     doi.org/10.1002/jcc.10318
  2. Bykov,D.; Petrenko,T.; Izsak,R.; Kossmann,S.; Becker,U.; Valeev,E.; Neese,F.
     Efficient implementation of the analytic second derivatives of Hartree-Fock and hybrid DFT energies: a detailed analysis of different approximations
     Molec. Phys., 2015 113 1961-1977
     doi.org/10.1080/00268976.2015.1025114
  3. Neese,F.
     The SHARK Integral Generation and Digestion System
     J. Comp. Chem., 2022  1-16
     doi.org/10.1002/jcc.26942
  4. Lehtola,S.; Steigemann,C.; Oliveira,M.; Marques,M.
     Recent developments in Libxc - A comprehensive library of functionals for density functional theory
     Software X, 2018 7 
     doi.org/10.1016/j.softx.2017.11.002
  5. Caldeweyher,E.; Bannwarth,C.; Grimme,S.
     Extension of the D3 dispersion coefficient model
     J. Chem. Phys., 2017 147 034112
     doi.org/10.1063/1.4993215
  6. Caldeweyher,E.; Ehlert,S.; Hansen,A.; Neugebauer,H.; Spicher,S.; Bannwarth,C.; Grimme,S.
     A generally applicable atomic-charge dependent London dispersion correction
     J. Chem. Phys., 2019 150 154122
     doi.org/10.1063/1.5090222
  7. Caldeweyher,E.; Mewes,J.; Ehlert,S.; Grimme,S.
     Extension and evaluation of the D4 London-dispersion model for periodic systems
     Phys. Chem. Chem. Phys., 2020 22(16)8499-8512
     doi.org/10.1039/D0CP00502A
  8. Wittmann,L.; Gordiy,I.; Friede,M.; Helmich-Paris,B.; Grimme,S.; Hansen,A.; Bursch,M.
     Extension of the D3 and D4 London Dispersion Corrections to the full Actinides Series
     Phys. Chem. Chem. Phys., 2024 26(32)21379-21394
     doi.org/https://doi.org/10.1039/D4CP01514B 

List of suggested additional citations. These are papers that are important in the 'surrounding' of 
of this run, or papers that preceded the highly important papers. If you like your results we are grateful for a citation.

  1. Neese,F.
     The ORCA program system
     WIRES Comput. Molec. Sci., 2012 2(1)73-78
     doi.org/10.1002/wcms.81
  2. Neese,F.
     Software update: the ORCA program system, version 4.0
     WIRES Comput. Molec. Sci., 2018 8(1)1-6
     doi.org/10.1002/wcms.1327
  3. Neese,F.; Wennmohs,F.; Becker,U.; Riplinger,C.
     The ORCA quantum chemistry program package
     J. Chem. Phys., 2020 152 Art. No. L224108
     doi.org/10.1063/5.0004608

List of optional additional citations

  1. Neese,F.
     Approximate second-order SCF convergence for spin unrestricted wavefunctions
     Chem. Phys. Lett., 2000 325(1-3)93-98
     doi.org/10.1016/s0009-2614(00)00662-x
                             ****ORCA TERMINATED NORMALLY****
TOTAL RUN TIME: 0 days 0 hours 7 minutes 30 seconds 533 msec
6955.31user 463.25system 7:31.39elapsed 1643%CPU (0avgtext+0avgdata 740020maxresident)k
141518739inputs+8316503outputs (310137major+25847849minor)pagefaults 0swaps
