59
 energy: -10.200255745143 gnorm: 0.012969175896 xtb: 6.7.1 (f811460) iter: 1
Ru           0.06890000000000       -0.02060000000000       -0.00800000000000
Cl           0.18690000000000        0.02810000000000        2.18490000000000
Cl           1.30640000000000        0.00510000000000       -1.86940000000000
C           -1.10480000000000       -1.43610000000000       -0.32120000000000
H           -2.13030000000000       -1.48230000000000       -0.60670000000000
H           -0.64920000000000       -2.39470000000000       -0.18670000000000
C           -1.01960000000000        1.70450000000000       -0.33000000000000
N           -0.57390000000000        2.94240000000000       -0.21840000000000
C            0.67580000000000        3.47240000000000        0.30220000000000
C            0.77340000000000        3.84860000000000        1.65600000000000
C            1.90110000000000        4.51390000000000        2.10280000000000
H            1.96410000000000        4.80250000000000        3.13840000000000
C            2.94200000000000        4.79680000000000        1.24740000000000
H            3.81390000000000        5.31730000000000        1.60980000000000
C            2.87200000000000        4.39690000000000       -0.06830000000000
H            3.69110000000000        4.60890000000000       -0.73430000000000
C            1.76420000000000        3.72400000000000       -0.55290000000000
C            1.76210000000000        3.25060000000000       -1.97440000000000
H            1.74940000000000        4.12040000000000       -2.64370000000000
H            0.82660000000000        2.71030000000000       -2.16350000000000
C            2.94960000000000        2.35420000000000       -2.29940000000000
H            2.98920000000000        1.50480000000000       -1.61390000000000
H            3.90060000000000        2.88020000000000       -2.19990000000000
H            2.89170000000000        1.95330000000000       -3.31400000000000
C           -0.29990000000000        3.49950000000000        2.64310000000000
H           -1.14420000000000        3.05230000000000        2.10440000000000
H           -0.68500000000000        4.42180000000000        3.09970000000000
C            0.18690000000000        2.54560000000000        3.72540000000000
H            0.98040000000000        2.98320000000000        4.33700000000000
H            0.61860000000000        1.64670000000000        3.27260000000000
H           -0.62090000000000        2.22520000000000        4.38740000000000
C           -1.60400000000000        3.96390000000000       -0.71610000000000
C           -2.81140000000000        3.10220000000000       -1.17360000000000
H           -2.99150000000000        3.21710000000000       -2.24540000000000
H           -3.72980000000000        3.41550000000000       -0.66990000000000
C           -2.45530000000000        1.62680000000000       -0.81690000000000
C           -2.59390000000000        0.74570000000000       -2.06650000000000
C           -1.90940000000000        1.07830000000000       -3.22980000000000
H           -1.33810000000000        1.99040000000000       -3.26450000000000
C           -1.93530000000000        0.24860000000000       -4.33250000000000
H           -1.40860000000000        0.53030000000000       -5.23110000000000
C           -2.61350000000000       -0.95220000000000       -4.27870000000000
H           -2.60030000000000       -1.62100000000000       -5.12380000000000
C           -3.31060000000000       -1.29460000000000       -3.13620000000000
H           -3.80530000000000       -2.25050000000000       -3.06820000000000
C           -3.33930000000000       -0.43020000000000       -2.06150000000000
H           -3.89410000000000       -0.70900000000000       -1.18210000000000
C           -3.34320000000000        1.17350000000000        0.35540000000000
H           -3.26750000000000        1.87870000000000        1.18290000000000
H           -3.03210000000000        0.20140000000000        0.73450000000000
H           -4.38920000000000        1.11550000000000        0.05710000000000
C           -1.05700000000000        4.78080000000000       -1.88980000000000
H           -0.75830000000000        4.13880000000000       -2.71550000000000
H           -0.19350000000000        5.36980000000000       -1.58330000000000
H           -1.81270000000000        5.47080000000000       -2.26620000000000
C           -2.04580000000000        4.92690000000000        0.38990000000000
H           -1.19910000000000        5.49060000000000        0.77900000000000
H           -2.51750000000000        4.39530000000000        1.21390000000000
H           -2.77290000000000        5.64360000000000        0.00670000000000
59
 energy: -10.201858788850 gnorm: 0.007711536589 xtb: 6.7.1 (f811460) iter: 2
Ru           0.07839124809165       -0.01705484695807       -0.01595501465098
Cl           0.21667827632997        0.03366048867980        2.17382814626080
Cl           1.29458536701119        0.01279267854349       -1.88998392788216
C           -1.08506586362899       -1.44324893810280       -0.31266375919104
H           -2.11129713914296       -1.49149363115439       -0.58548665642871
H           -0.62128425928714       -2.39794856792423       -0.18187459091215
C           -1.02609094468390        1.69863977626664       -0.32834737331536
N           -0.57468944834813        2.93346523766448       -0.22035326060514
C            0.67468489522286        3.46208163415493        0.30091427615589
C            0.77160414752545        3.83955296680767        1.65418656713021
C            1.89675063374475        4.50939811618785        2.09999737864142
H            1.95796368906255        4.80124335783798        3.13474904250886
C            2.93699400869806        4.79468781193814        1.24469647627963
H            3.80746542875226        5.31773233467237        1.60665269396980
C            2.86813715518483        4.39287841252991       -0.07038825466733
H            3.68640380662271        4.60684872285033       -0.73662677321797
C            1.76247306865781        3.71616884651799       -0.55418592474610
C            1.76265711521717        3.24499519326351       -1.97662524060808
H            1.73736965441540        4.11562193011783       -2.64401722389792
H            0.83394547841878        2.69350764087204       -2.16487168760804
C            2.96062144007890        2.36491072488202       -2.30658863795109
H            3.01628409241314        1.51852040534587       -1.61948011767885
H            3.90384901035379        2.90521052304493       -2.21456343459012
H            2.90316131640550        1.96083381327866       -3.31964435012102
C           -0.30186052931643        3.49404666015731        2.64259165144597
H           -1.13680170138467        3.02490272729007        2.10941650012405
H           -0.70208005258708        4.41919973118151        3.07797212062620
C            0.19099011583829        2.57050512935500        3.74716882460603
H            0.96496831246288        3.03713298469678        4.35980983295018
H            0.64679214216557        1.67502689541989        3.31854039814063
H           -0.61733014249870        2.24553308182941        4.40563719718449
C           -1.60317663531622        3.95657181092264       -0.71461887321730
C           -2.81384580000382        3.09862503881315       -1.17082563582046
H           -2.99450959088701        3.21448374429809       -2.24243909882061
H           -3.73076766901370        3.41440595982160       -0.66614716555380
C           -2.46187716773708        1.62206414433266       -0.81585175948631
C           -2.59994108837578        0.74404929056590       -2.06766134420268
C           -1.89761509980662        1.06902848330052       -3.22081049889909
H           -1.31128056332799        1.97088633434280       -3.24475928941117
C           -1.92236084747555        0.24330133197760       -4.32614354792850
H           -1.38033393316157        0.51913720941270       -5.21658631820211
C           -2.62212545757600       -0.94463349148580       -4.28569274288070
H           -2.60952958992352       -1.61081322102990       -5.13282722179376
C           -3.33999175644903       -1.27741751148157       -3.15555172386521
H           -3.85496833480010       -2.22338159120037       -3.09949695401696
C           -3.36413854066633       -0.41794284029715       -2.07631628314102
H           -3.94193063438997       -0.68552149106014       -1.20814281009884
C           -3.35417520670227        1.16824798123718        0.35323440208733
H           -3.27512118268119        1.86890192213563        1.18416818491073
H           -3.04964868025060        0.19229454657708        0.72770605270464
H           -4.40024001743621        1.11842969216329        0.05412111088785
C           -1.05431790762964        4.77201211407666       -1.88800279756986
H           -0.75859013396382        4.12943082141517       -2.71427948452492
H           -0.18848776568560        5.35742976468157       -1.58135129484983
H           -1.80771681799222        5.46499990940603       -2.26300503348784
C           -2.03866904836969        4.91786650428625        0.39468858095058
H           -1.18893081253893        5.47774049573129        0.78253087803745
H           -2.50971289202488        4.38550452012008        1.21859477144484
H           -2.76436714761014        5.63774668568990        0.01516101879534
59
 energy: -10.204001863171 gnorm: 0.006555293419 xtb: 6.7.1 (f811460) iter: 3
Ru           0.09529233374325       -0.00435518791337       -0.03387156303017
Cl           0.27946160369730        0.05823613765627        2.15244886802611
Cl           1.27142420444691        0.03687352821902       -1.93341880541764
C           -1.05605811068098       -1.44573516749569       -0.30218098150922
H           -2.08747904371927       -1.48489994238977       -0.55376896305621
H           -0.58309593158169       -2.39698079876617       -0.18023709483552
C           -1.04005703965786        1.69339510183582       -0.32791728203648
N           -0.57644495537967        2.92123385707231       -0.22615895398227
C            0.67288582990582        3.44457353539995        0.29720823935464
C            0.76941111700805        3.81943721043858        1.65065785332768
C            1.89040120838920        4.49622231125827        2.09575540648234
H            1.94777005964103        4.79438517582184        3.12884200791430
C            2.92944800566449        4.78708775805640        1.24089614420270
H            3.79750989462339        5.31392495581240        1.60275791638993
C            2.86294959770677        4.38294533348716       -0.07351359969455
H            3.68031566425556        4.60019964365701       -0.73953039865191
C            1.76063080438690        3.70094712838294       -0.55696873186855
C            1.76412904590570        3.23439766456573       -1.98156753006382
H            1.71576529503747        4.10682956847276       -2.64524884684707
H            0.84710774029461        2.66315091616283       -2.16757731300330
C            2.97945284760675        2.38216365123938       -2.32261144629952
H            3.06265523389511        1.53933541452535       -1.63415754954221
H            3.90962955434553        2.94694033531929       -2.24420700740574
H            2.92177241859660        1.97443322786587       -3.33380476621120
C           -0.30657459992267        3.47999939272583        2.63947019660897
H           -1.12249035402804        2.96885549350867        2.11423907523075
H           -0.73713701673420        4.41085013514649        3.03370657479696
C            0.19382066663795        2.61208395955838        3.78699509211619
H            0.93172006992308        3.13231976392919        4.40264928352131
H            0.69100680062024        1.71999992063545        3.40494129129670
H           -0.61753525948093        2.28320078928342        4.43913566967650
C           -1.60314812995756        3.94634582260795       -0.71306299658330
C           -2.82047678316417        3.09454551685097       -1.16635152070848
H           -3.00235528485566        3.21079670748660       -2.23777901390213
H           -3.73444774403836        3.41520706518253       -0.65954959788195
C           -2.47517019446003        1.61626118303218       -0.81333788438329
C           -2.60682679431509        0.73824260735000       -2.06523067764744
C           -1.87265588430114        1.04966757847472       -3.20073635756459
H           -1.25938424119909        1.93365059335785       -3.20479914504606
C           -1.89465299087589        0.23102698981307       -4.31094191072750
H           -1.32552499764115        0.49692110641281       -5.18726368593092
C           -2.63509605861345       -0.93287145139207       -4.29534857284916
H           -2.62579722125935       -1.59297574042707       -5.14746442541093
C           -3.38753702891415       -1.25025675664376       -3.18533253907821
H           -3.94171780894979       -2.17667676532813       -3.15327782119150
C           -3.39912375180767       -0.40286688418021       -2.09508080533076
H           -4.00697874000034       -0.65624866644654       -1.24260465714801
C           -3.37321024569176        1.15854684482335        0.35019862670639
H           -3.28651006621747        1.84842503256463        1.18936278938304
H           -3.08122429980975        0.17385708093369        0.71216681369521
H           -4.42011944492186        1.12567775661815        0.05121673374162
C           -1.05183789836010        4.75907413342663       -1.88601399366052
H           -0.76219737668596        4.11492354894669       -2.71329256089548
H           -0.18122529980187        5.33736617439049       -1.57944164604005
H           -1.80107876464662        5.45774977939883       -2.25786238326383
C           -2.02630434205011        4.90290335853537        0.40376702948048
H           -1.17061601770169        5.45572163557371        0.78858939912947
H           -2.49400901756275        4.36722570275244        1.22758380752916
H           -2.75056125734348        5.62850923241300        0.03312421008876
59
 energy: -10.205601554737 gnorm: 0.010268021676 xtb: 6.7.1 (f811460) iter: 4
Ru           0.11310303396592        0.01127211669077       -0.05243877839596
Cl           0.35183625485322        0.09102964766648        2.12938215015182
Cl           1.24257230884336        0.06298366159945       -1.98103411551851
C           -1.02640889261963       -1.44596429627371       -0.28824255129058
H           -2.06597782648477       -1.46614028075465       -0.51633815935404
H           -0.54839851465217       -2.39574701142728       -0.17667483053031
C           -1.05573098912878        1.68942863503832       -0.32664162220669
N           -0.57782420192261        2.91025408080852       -0.23283575785899
C            0.67233744899454        3.42677839628089        0.29311926755754
C            0.76907065387159        3.79460094487498        1.64825941571343
C            1.88549844109642        4.47905065501633        2.09287399121432
H            1.93862865564821        4.78405499128123        3.12407404131857
C            2.92254814934266        4.77786173577130        1.23814152131628
H            3.78728063259766        5.30998823505429        1.59998056980066
C            2.85891998177463        4.37259223241259       -0.07607670209049
H            3.67530981812381        4.59457721284314       -0.74158224195598
C            1.76046158458128        3.68503062169305       -0.56002112728886
C            1.76635954309736        3.22347010379747       -1.98700852771822
H            1.69001372280945        4.09722308764083       -2.64698762245756
H            0.86262165165476        2.62928021615684       -2.16839733472500
C            3.00071237245649        2.40277475088941       -2.34263049055719
H            3.11459235302276        1.56212726732430       -1.65482378612181
H            3.91627253279566        2.99409029541367       -2.27900600935880
H            2.94212509628630        1.99312591485132       -3.35291507189985
C           -0.31107158832655        3.45927032531965        2.63536914749398
H           -1.10205411822684        2.89880122822620        2.11764725167080
H           -0.77912851819767        4.39379608582477        2.98211249141296
C            0.19526478609639        2.65516713745053        3.83141486551155
H            0.89335296248926        3.23318231865736        4.44741384726629
H            0.73453939452280        1.76419712460732        3.50201029843184
H           -0.62016308586344        2.32617791321587        4.47830031346971
C           -1.60410162227056        3.93655913954827       -0.71296071158741
C           -2.82848875940440        3.09007457215249       -1.16283152903768
H           -3.01142690264294        3.20512269842534       -2.23427709542669
H           -3.73930247034098        3.41605803007985       -0.65368527964794
C           -2.48917472881774        1.61047206216028       -0.81014178740502
C           -2.61158417848365        0.73032007213933       -2.06076682397177
C           -1.84067248696658        1.02522377013859       -3.17659941285634
H           -1.19703271470480        1.88849602908012       -3.15789000764397
C           -1.86234824008349        0.21563916723034       -4.29310230421780
H           -1.26140803814785        0.46876458971968       -5.15290274603822
C           -2.65039774585119       -0.91903982626558       -4.30610527169456
H           -2.64700207479157       -1.57115059339003       -5.16463763931618
C           -3.44017841980309       -1.21933335912696       -3.21675671060262
H           -4.04060945367506       -2.11987575312135       -3.21335590102014
C           -3.43570225104163       -0.38768036976817       -2.11348265587604
H           -4.06664528040550       -0.63005938224115       -1.27504451637738
C           -3.39241135433336        1.14836741968566        0.34759066940008
H           -3.29661139181106        1.82522386847252        1.19648198599067
H           -3.11524014217451        0.15353797379097        0.69413881079748
H           -4.44033617923520        1.13521321410019        0.04911876277217
C           -1.05176508815879        4.74674829231985       -1.88600277984075
H           -0.76891733735958        4.10036789039508       -2.71410835009338
H           -0.17579178737826        5.31747369742895       -1.58037424508158
H           -1.79704951407383        5.45125522137591       -2.25418602075725
C           -2.01502673928898        4.88844424687452        0.41127674215153
H           -1.15328813591022        5.43472298301020        0.79208662948805
H           -2.47730449557850        4.34835376315121        1.23551549185967
H           -2.73894611076860        5.61916523468181        0.05075825303176
59
 energy: -10.206428107597 gnorm: 0.010374752176 xtb: 6.7.1 (f811460) iter: 5
Ru           0.12729603409100        0.02450114134186       -0.06239129719137
Cl           0.40340923815930        0.12028402640076        2.11427132862371
Cl           1.22332233116110        0.08193937634199       -2.00959700300624
C           -1.00071229864641       -1.44557575127292       -0.27389000210482
H           -2.04598964553510       -1.44395328042320       -0.48566582276237
H           -0.52367063548326       -2.39619077278070       -0.16934391017415
C           -1.06666136846827        1.68637940258873       -0.32381859063150
N           -0.57810221470178        2.90278576833683       -0.23764581907848
C            0.67327010841368        3.41381936157315        0.29042349871367
C            0.77088212279518        3.77284415356744        1.64833195289765
C            1.88402533871931        4.46284827665843        2.09245598309196
H            1.93441750948306        4.77239598737412        3.12226270579739
C            2.91860774122461        4.76937892099013        1.23728209410155
H            3.77991670879368        5.30711014507878        1.59890556597411
C            2.85704845980901        4.36517017206694       -0.07737226164405
H            3.67231919692362        4.59238109422533       -0.74246171408356
C            1.76180466139490        3.67344217966515       -0.56231650712675
C            1.76824290598882        3.21605299722834       -1.99124084939867
H            1.66624722667469        4.08976709896384       -2.64825049278398
H            0.87639751064290        2.60200998688227       -2.16677174532761
C            3.01797926001174        2.42316592722558       -2.36166496397953
H            3.15791176114152        1.58298671566755       -1.67731625154753
H            3.92057050411382        3.03577557927951       -2.30934208036529
H            2.95820365027664        2.01450293778066       -3.37239091498536
C           -0.31301330296706        3.43906529490343        2.63299199251080
H           -1.08114010547659        2.83995258583882        2.12245224224982
H           -0.81103162555384        4.37166124096720        2.94199754671809
C            0.19428617373623        2.68777946884034        3.86546789257401
H            0.86389020676291        3.30482797484509        4.47414961751109
H            0.75732300176364        1.79697866288998        3.57719841225435
H           -0.62363503642412        2.36473957267666        4.51221814661280
C           -1.60535814043588        3.92885009250538       -0.71451151312611
C           -2.83443806416670        3.08493801657839       -1.16123446041678
H           -3.01808225033326        3.19748056454068       -2.23285965206806
H           -3.74292630247248        3.41485181468661       -0.65034924062847
C           -2.49837601341203        1.60498816263611       -0.80700360601281
C           -2.61310835649794        0.72267599271617       -2.05634177215118
C           -1.81142097818729        1.00147804954405       -3.15526828651599
H           -1.14275974347417        1.84556276244238       -3.11736308725840
C           -1.83657841464988        0.20072987344948       -4.27771772344041
H           -1.20771317290189        0.44023907401273       -5.12216176339261
C           -2.66491250510129       -0.90601913032783       -4.31514933650147
H           -2.66870662395315       -1.55018117860124       -5.17971133347938
C           -3.48443987570146       -1.19071654806170       -3.24236117977334
H           -4.12312789740793       -2.06510795435743       -3.26340327227443
C           -3.46575963310679       -0.37379457075760       -2.12835416979190
H           -4.11179475975264       -0.60810317472124       -1.30018220740996
C           -3.40594795537453        1.14045752670952        0.34614350265821
H           -3.30259808754024        1.80616135230115        1.20292285224050
H           -3.14227791460219        0.13756411078076        0.67987256101773
H           -4.45431526075188        1.14400977356955        0.04783662390113
C           -1.05420787990924        4.73732955665691       -1.88852216108655
H           -0.77707130754639        4.08875787299161       -2.71706477987362
H           -0.17402349445387        5.30267080342631       -1.58501381790958
H           -1.79721344905566        5.44577413767375       -2.25351121588963
C           -2.00821112926854        4.87786976255646        0.41428064103706
H           -1.14249196200089        5.42079271351117        0.79088288042939
H           -2.46421751680183        4.33377392523018        1.23957954773105
H           -2.73343672996467        5.61094037258453        0.06183721654540
59
 energy: -10.206906942369 gnorm: 0.006377241798 xtb: 6.7.1 (f811460) iter: 6
Ru           0.13811955277698        0.03313588907514       -0.06354180336082
Cl           0.43395981281680        0.14075809091483        2.10903614892467
Cl           1.21497917170195        0.09196469848242       -2.02033858249796
C           -0.98001911221832       -1.44603714202729       -0.25974799269322
H           -2.02757676605604       -1.42391913764170       -0.46236120578361
H           -0.50900623814662       -2.39957788268363       -0.15887521361728
C           -1.07140417597902        1.68376095793721       -0.31950143076260
N           -0.57747508091801        2.89859903377511       -0.23991256350612
C            0.67507562988835        3.40626824897822        0.28943594839059
C            0.77372944162815        3.75661553769209        1.65031358408421
C            1.88537538972244        4.44892255089253        2.09447165462574
H            1.93486467409677        4.75959279531630        3.12379334074246
C            2.91777091977585        4.76145249521160        1.23878511592986
H            3.77623002649559        5.30374330375776        1.60035078086814
C            2.85720204815533        4.36055933292369       -0.07690282977308
H            3.67135029804381        4.59282489593082       -0.74165558897273
C            1.76390535162831        3.66707785348989       -0.56341276658620
C            1.76931631021109        3.21330846052042       -1.99380557686703
H            1.64751613443903        4.08592085282263       -2.64828857302457
H            0.88676866519046        2.58511514405736       -2.16381927736888
C            3.02887998253377        2.44170730821763       -2.37745690633737
H            3.18762443085272        1.60070882969552       -1.69873469038711
H            3.92145180443474        3.06832863973724       -2.33153100381269
H            2.96787772647309        2.03658941573649       -3.38971599549764
C           -0.31324536373583        3.42209259065659        2.63205976778730
H           -1.06315392499869        2.79834960071277        2.12758813035619
H           -0.83128535220677        4.34847467009437        2.91630684008013
C            0.19066604281006        2.70835159792455        3.88600690374238
H            0.84390273842933        3.34671231582946        4.48368069511020
H            0.76295901807998        1.81781977483927        3.62471374597296
H           -0.62877324183092        2.39347834121019        4.53526861452940
C           -1.60619866940922        3.92340968928065       -0.71723585323984
C           -2.83704190016396        3.07948165306110       -1.16138980845674
H           -3.02091441168097        3.18882539313468       -2.23331747683133
H           -3.74434364441385        3.41166683159943       -0.64984412808862
C           -2.50174548396352        1.60008061937245       -0.80421917599303
C           -2.61188595385364        0.71642463691935       -2.05276424807403
C           -1.78981565017111        0.98142803448021       -3.13946199713229
H           -1.10392396307410        1.80970467695498       -3.08793929763167
C           -1.82119044881423        0.18810610632604       -4.26675115155286
H           -1.17226816826327        0.41471075392821       -5.09890044295686
C           -2.67749119805399       -0.89494854045265       -4.32190613637683
H           -2.68865886473725       -1.53208620521720       -5.19147967600709
C           -3.51556804077823       -1.16686379056778       -3.26017325381654
H           -4.18010503459728       -2.01838873307703       -3.29852476326898
C           -3.48665905568786       -0.36156184522080       -2.13885091854603
H           -4.14301956224209       -0.58890175374692       -1.31759570756415
C           -3.41279829985704        1.13564129609680        0.34600229595606
H           -3.30417808854029        1.79363006123120        1.20772816029356
H           -3.15987710606008        0.12774102121287        0.67144120153721
H           -4.46094701915099        1.15110582239030        0.04751008669716
C           -1.05767817057047        4.73065535599661       -1.89304168806932
H           -0.78457850815144        4.08014798936382       -2.72154461413917
H           -0.17498315767136        5.29351099864570       -1.59255065891353
H           -1.80018655157031        5.44070454571131       -2.25590640575170
C           -2.00572526183797        4.87177930426121        0.41273198608587
H           -1.13848612475955        5.41475498962915        0.78559575214250
H           -2.45600603013222        4.32498692025602        1.23944870119603
H           -2.73341154588790        5.60435510434966        0.06492994820642
59
 energy: -10.207219103533 gnorm: 0.004501828531 xtb: 6.7.1 (f811460) iter: 7
Ru           0.14955117394580        0.03824095787373       -0.06087611864565
Cl           0.46077469104650        0.15517993814874        2.10898574607855
Cl           1.21118256050332        0.09626890121466       -2.02602469880563
C           -0.96059950613840       -1.44831788954572       -0.24329095188513
H           -2.00871708557620       -1.40645217355668       -0.43813713756040
H           -0.49956276202071       -2.40677700210084       -0.14549557407031
C           -1.07150839600946        1.68057130608193       -0.31362699678749
N           -0.57614235726740        2.89562323446935       -0.24089726567564
C            0.67735258722308        3.40122158515863        0.28894534974567
C            0.77646142710428        3.74238391545004        1.65251527520939
C            1.88755337108718        4.43461708262886        2.09833194587093
H            1.93720331016872        4.74287872461725        3.12825528033518
C            2.91860248262045        4.75206383176781        1.24284231743478
H            3.77482003477453        5.29728693959666        1.60530178265124
C            2.85861703846460        4.35688076766042       -0.07461074289186
H            3.67174836621582        4.59453626684193       -0.73873750864735
C            1.76616570903508        3.66414800011863       -0.56387463838127
C            1.76930827619004        3.21477789746038       -1.99572544732801
H            1.63150584801416        4.08623992967819       -2.64721307339331
H            0.89428371133616        2.57625165610820       -2.16092206023518
C            3.03472085274310        2.46048394660980       -2.39209396726066
H            3.20824044176206        1.61778174729777       -1.72036781697387
H            3.91926667681172        3.09696406197128       -2.34933443453009